<VTKFile type="UnstructuredGrid" version="0.1" byte_order="LittleEndian">
 <UnstructuredGrid>
  <Piece NumberOfPoints="961" NumberOfCells="900">
   <Points>
    <DataArray name="Position" type="Float32" NumberOfComponents="3" format="ascii">
    0.000000 0.000000 0.0
    0.066667 0.000000 0.0
    0.133333 0.000000 0.0
    0.200000 0.000000 0.0
    0.266667 0.000000 0.0
    0.333333 0.000000 0.0
    0.400000 0.000000 0.0
    0.466667 0.000000 0.0
    0.533333 0.000000 0.0
    0.600000 0.000000 0.0
    0.666667 0.000000 0.0
    0.733333 0.000000 0.0
    0.800000 0.000000 0.0
    0.866667 0.000000 0.0
    0.933333 0.000000 0.0
    1.000000 0.000000 0.0
    1.066667 0.000000 0.0
    1.133333 0.000000 0.0
    1.200000 0.000000 0.0
    1.266667 0.000000 0.0
    1.333333 0.000000 0.0
    1.400000 0.000000 0.0
    1.466667 0.000000 0.0
    1.533333 0.000000 0.0
    1.600000 0.000000 0.0
    1.666667 0.000000 0.0
    1.733333 0.000000 0.0
    1.800000 0.000000 0.0
    1.866667 0.000000 0.0
    1.933333 0.000000 0.0
    2.000000 0.000000 0.0
    0.000000 0.066667 0.0
    0.066667 0.066667 0.0
    0.133333 0.066667 0.0
    0.200000 0.066667 0.0
    0.266667 0.066667 0.0
    0.333333 0.066667 0.0
    0.400000 0.066667 0.0
    0.466667 0.066667 0.0
    0.533333 0.066667 0.0
    0.600000 0.066667 0.0
    0.666667 0.066667 0.0
    0.733333 0.066667 0.0
    0.800000 0.066667 0.0
    0.866667 0.066667 0.0
    0.933333 0.066667 0.0
    1.000000 0.066667 0.0
    1.066667 0.066667 0.0
    1.133333 0.066667 0.0
    1.200000 0.066667 0.0
    1.266667 0.066667 0.0
    1.333333 0.066667 0.0
    1.400000 0.066667 0.0
    1.466667 0.066667 0.0
    1.533333 0.066667 0.0
    1.600000 0.066667 0.0
    1.666667 0.066667 0.0
    1.733333 0.066667 0.0
    1.800000 0.066667 0.0
    1.866667 0.066667 0.0
    1.933333 0.066667 0.0
    2.000000 0.066667 0.0
    0.000000 0.133333 0.0
    0.066667 0.133333 0.0
    0.133333 0.133333 0.0
    0.200000 0.133333 0.0
    0.266667 0.133333 0.0
    0.333333 0.133333 0.0
    0.400000 0.133333 0.0
    0.466667 0.133333 0.0
    0.533333 0.133333 0.0
    0.600000 0.133333 0.0
    0.666667 0.133333 0.0
    0.733333 0.133333 0.0
    0.800000 0.133333 0.0
    0.866667 0.133333 0.0
    0.933333 0.133333 0.0
    1.000000 0.133333 0.0
    1.066667 0.133333 0.0
    1.133333 0.133333 0.0
    1.200000 0.133333 0.0
    1.266667 0.133333 0.0
    1.333333 0.133333 0.0
    1.400000 0.133333 0.0
    1.466667 0.133333 0.0
    1.533333 0.133333 0.0
    1.600000 0.133333 0.0
    1.666667 0.133333 0.0
    1.733333 0.133333 0.0
    1.800000 0.133333 0.0
    1.866667 0.133333 0.0
    1.933333 0.133333 0.0
    2.000000 0.133333 0.0
    0.000000 0.200000 0.0
    0.066667 0.200000 0.0
    0.133333 0.200000 0.0
    0.200000 0.200000 0.0
    0.266667 0.200000 0.0
    0.333333 0.200000 0.0
    0.400000 0.200000 0.0
    0.466667 0.200000 0.0
    0.533333 0.200000 0.0
    0.600000 0.200000 0.0
    0.666667 0.200000 0.0
    0.733333 0.200000 0.0
    0.800000 0.200000 0.0
    0.866667 0.200000 0.0
    0.933333 0.200000 0.0
    1.000000 0.200000 0.0
    1.066667 0.200000 0.0
    1.133333 0.200000 0.0
    1.200000 0.200000 0.0
    1.266667 0.200000 0.0
    1.333333 0.200000 0.0
    1.400000 0.200000 0.0
    1.466667 0.200000 0.0
    1.533333 0.200000 0.0
    1.600000 0.200000 0.0
    1.666667 0.200000 0.0
    1.733333 0.200000 0.0
    1.800000 0.200000 0.0
    1.866667 0.200000 0.0
    1.933333 0.200000 0.0
    2.000000 0.200000 0.0
    0.000000 0.266667 0.0
    0.066667 0.266667 0.0
    0.133333 0.266667 0.0
    0.200000 0.266667 0.0
    0.266667 0.266667 0.0
    0.333333 0.266667 0.0
    0.400000 0.266667 0.0
    0.466667 0.266667 0.0
    0.533333 0.266667 0.0
    0.600000 0.266667 0.0
    0.666667 0.266667 0.0
    0.733333 0.266667 0.0
    0.800000 0.266667 0.0
    0.866667 0.266667 0.0
    0.933333 0.266667 0.0
    1.000000 0.266667 0.0
    1.066667 0.266667 0.0
    1.133333 0.266667 0.0
    1.200000 0.266667 0.0
    1.266667 0.266667 0.0
    1.333333 0.266667 0.0
    1.400000 0.266667 0.0
    1.466667 0.266667 0.0
    1.533333 0.266667 0.0
    1.600000 0.266667 0.0
    1.666667 0.266667 0.0
    1.733333 0.266667 0.0
    1.800000 0.266667 0.0
    1.866667 0.266667 0.0
    1.933333 0.266667 0.0
    2.000000 0.266667 0.0
    0.000000 0.333333 0.0
    0.066667 0.333333 0.0
    0.133333 0.333333 0.0
    0.200000 0.333333 0.0
    0.266667 0.333333 0.0
    0.333333 0.333333 0.0
    0.400000 0.333333 0.0
    0.466667 0.333333 0.0
    0.533333 0.333333 0.0
    0.600000 0.333333 0.0
    0.666667 0.333333 0.0
    0.733333 0.333333 0.0
    0.800000 0.333333 0.0
    0.866667 0.333333 0.0
    0.933333 0.333333 0.0
    1.000000 0.333333 0.0
    1.066667 0.333333 0.0
    1.133333 0.333333 0.0
    1.200000 0.333333 0.0
    1.266667 0.333333 0.0
    1.333333 0.333333 0.0
    1.400000 0.333333 0.0
    1.466667 0.333333 0.0
    1.533333 0.333333 0.0
    1.600000 0.333333 0.0
    1.666667 0.333333 0.0
    1.733333 0.333333 0.0
    1.800000 0.333333 0.0
    1.866667 0.333333 0.0
    1.933333 0.333333 0.0
    2.000000 0.333333 0.0
    0.000000 0.400000 0.0
    0.066667 0.400000 0.0
    0.133333 0.400000 0.0
    0.200000 0.400000 0.0
    0.266667 0.400000 0.0
    0.333333 0.400000 0.0
    0.400000 0.400000 0.0
    0.466667 0.400000 0.0
    0.533333 0.400000 0.0
    0.600000 0.400000 0.0
    0.666667 0.400000 0.0
    0.733333 0.400000 0.0
    0.800000 0.400000 0.0
    0.866667 0.400000 0.0
    0.933333 0.400000 0.0
    1.000000 0.400000 0.0
    1.066667 0.400000 0.0
    1.133333 0.400000 0.0
    1.200000 0.400000 0.0
    1.266667 0.400000 0.0
    1.333333 0.400000 0.0
    1.400000 0.400000 0.0
    1.466667 0.400000 0.0
    1.533333 0.400000 0.0
    1.600000 0.400000 0.0
    1.666667 0.400000 0.0
    1.733333 0.400000 0.0
    1.800000 0.400000 0.0
    1.866667 0.400000 0.0
    1.933333 0.400000 0.0
    2.000000 0.400000 0.0
    0.000000 0.466667 0.0
    0.066667 0.466667 0.0
    0.133333 0.466667 0.0
    0.200000 0.466667 0.0
    0.266667 0.466667 0.0
    0.333333 0.466667 0.0
    0.400000 0.466667 0.0
    0.466667 0.466667 0.0
    0.533333 0.466667 0.0
    0.600000 0.466667 0.0
    0.666667 0.466667 0.0
    0.733333 0.466667 0.0
    0.800000 0.466667 0.0
    0.866667 0.466667 0.0
    0.933333 0.466667 0.0
    1.000000 0.466667 0.0
    1.066667 0.466667 0.0
    1.133333 0.466667 0.0
    1.200000 0.466667 0.0
    1.266667 0.466667 0.0
    1.333333 0.466667 0.0
    1.400000 0.466667 0.0
    1.466667 0.466667 0.0
    1.533333 0.466667 0.0
    1.600000 0.466667 0.0
    1.666667 0.466667 0.0
    1.733333 0.466667 0.0
    1.800000 0.466667 0.0
    1.866667 0.466667 0.0
    1.933333 0.466667 0.0
    2.000000 0.466667 0.0
    0.000000 0.533333 0.0
    0.066667 0.533333 0.0
    0.133333 0.533333 0.0
    0.200000 0.533333 0.0
    0.266667 0.533333 0.0
    0.333333 0.533333 0.0
    0.400000 0.533333 0.0
    0.466667 0.533333 0.0
    0.533333 0.533333 0.0
    0.600000 0.533333 0.0
    0.666667 0.533333 0.0
    0.733333 0.533333 0.0
    0.800000 0.533333 0.0
    0.866667 0.533333 0.0
    0.933333 0.533333 0.0
    1.000000 0.533333 0.0
    1.066667 0.533333 0.0
    1.133333 0.533333 0.0
    1.200000 0.533333 0.0
    1.266667 0.533333 0.0
    1.333333 0.533333 0.0
    1.400000 0.533333 0.0
    1.466667 0.533333 0.0
    1.533333 0.533333 0.0
    1.600000 0.533333 0.0
    1.666667 0.533333 0.0
    1.733333 0.533333 0.0
    1.800000 0.533333 0.0
    1.866667 0.533333 0.0
    1.933333 0.533333 0.0
    2.000000 0.533333 0.0
    0.000000 0.600000 0.0
    0.066667 0.600000 0.0
    0.133333 0.600000 0.0
    0.200000 0.600000 0.0
    0.266667 0.600000 0.0
    0.333333 0.600000 0.0
    0.400000 0.600000 0.0
    0.466667 0.600000 0.0
    0.533333 0.600000 0.0
    0.600000 0.600000 0.0
    0.666667 0.600000 0.0
    0.733333 0.600000 0.0
    0.800000 0.600000 0.0
    0.866667 0.600000 0.0
    0.933333 0.600000 0.0
    1.000000 0.600000 0.0
    1.066667 0.600000 0.0
    1.133333 0.600000 0.0
    1.200000 0.600000 0.0
    1.266667 0.600000 0.0
    1.333333 0.600000 0.0
    1.400000 0.600000 0.0
    1.466667 0.600000 0.0
    1.533333 0.600000 0.0
    1.600000 0.600000 0.0
    1.666667 0.600000 0.0
    1.733333 0.600000 0.0
    1.800000 0.600000 0.0
    1.866667 0.600000 0.0
    1.933333 0.600000 0.0
    2.000000 0.600000 0.0
    0.000000 0.666667 0.0
    0.066667 0.666667 0.0
    0.133333 0.666667 0.0
    0.200000 0.666667 0.0
    0.266667 0.666667 0.0
    0.333333 0.666667 0.0
    0.400000 0.666667 0.0
    0.466667 0.666667 0.0
    0.533333 0.666667 0.0
    0.600000 0.666667 0.0
    0.666667 0.666667 0.0
    0.733333 0.666667 0.0
    0.800000 0.666667 0.0
    0.866667 0.666667 0.0
    0.933333 0.666667 0.0
    1.000000 0.666667 0.0
    1.066667 0.666667 0.0
    1.133333 0.666667 0.0
    1.200000 0.666667 0.0
    1.266667 0.666667 0.0
    1.333333 0.666667 0.0
    1.400000 0.666667 0.0
    1.466667 0.666667 0.0
    1.533333 0.666667 0.0
    1.600000 0.666667 0.0
    1.666667 0.666667 0.0
    1.733333 0.666667 0.0
    1.800000 0.666667 0.0
    1.866667 0.666667 0.0
    1.933333 0.666667 0.0
    2.000000 0.666667 0.0
    0.000000 0.733333 0.0
    0.066667 0.733333 0.0
    0.133333 0.733333 0.0
    0.200000 0.733333 0.0
    0.266667 0.733333 0.0
    0.333333 0.733333 0.0
    0.400000 0.733333 0.0
    0.466667 0.733333 0.0
    0.533333 0.733333 0.0
    0.600000 0.733333 0.0
    0.666667 0.733333 0.0
    0.733333 0.733333 0.0
    0.800000 0.733333 0.0
    0.866667 0.733333 0.0
    0.933333 0.733333 0.0
    1.000000 0.733333 0.0
    1.066667 0.733333 0.0
    1.133333 0.733333 0.0
    1.200000 0.733333 0.0
    1.266667 0.733333 0.0
    1.333333 0.733333 0.0
    1.400000 0.733333 0.0
    1.466667 0.733333 0.0
    1.533333 0.733333 0.0
    1.600000 0.733333 0.0
    1.666667 0.733333 0.0
    1.733333 0.733333 0.0
    1.800000 0.733333 0.0
    1.866667 0.733333 0.0
    1.933333 0.733333 0.0
    2.000000 0.733333 0.0
    0.000000 0.800000 0.0
    0.066667 0.800000 0.0
    0.133333 0.800000 0.0
[...]
   <CellData Vectors="vectors">
<DataArray type="Float32" Name="cellCenteredVelocity" NumberOfComponents="3" format="ascii">
0.006317 0.006317 0.0
0.011654 0.006102 0.0
0.016890 0.006038 0.0
0.022033 0.006056 0.0
0.027090 0.006109 0.0
0.032064 0.006182 0.0
0.036949 0.006272 0.0
0.041736 0.006378 0.0
0.046411 0.006504 0.0
0.050951 0.006654 0.0
0.055330 0.006837 0.0
0.059509 0.007061 0.0
0.063434 0.007343 0.0
0.067020 0.007712 0.0
0.070124 0.008229 0.0
0.072494 0.008996 0.0
0.073765 0.010105 0.0
0.073508 0.011479 0.0
0.070965 0.012660 0.0
0.062774 0.012390 0.0
0.038897 0.008109 0.0
0.007876 0.001678 0.0
0.000141 0.000030 0.0
0.000000 0.000000 0.0
0.000000 0.000000 0.0
0.000000 0.000000 0.0
0.000000 0.000000 0.0
0.000000 0.000000 0.0
0.000000 0.000000 0.0
0.000000 0.000000 0.0
0.006102 0.011654 0.0
0.011316 0.011316 0.0
0.016423 0.011238 0.0
0.021446 0.011279 0.0
0.026397 0.011369 0.0
0.031277 0.011486 0.0
0.036081 0.011627 0.0
0.040802 0.011793 0.0
0.045427 0.011990 0.0
0.049937 0.012225 0.0
0.054310 0.012509 0.0
0.058515 0.012858 0.0
0.062508 0.013295 0.0
0.066220 0.013867 0.0
0.069539 0.014664 0.0
0.072267 0.015839 0.0
0.074099 0.017519 0.0
0.074562 0.019570 0.0
0.072413 0.021219 0.0
0.062403 0.020020 0.0
0.033068 0.011264 0.0
0.004402 0.001550 0.0
0.000034 0.000012 0.0
0.000000 0.000000 0.0
0.000000 0.000000 0.0
0.000000 0.000000 0.0
0.000000 0.000000 0.0
0.000000 0.000000 0.0
0.000000 0.000000 0.0
0.000000 0.000000 0.0
0.006038 0.016890 0.0
0.011238 0.016423 0.0
0.016329 0.016329 0.0
0.021335 0.016395 0.0
0.026267 0.016523 0.0
0.031125 0.016686 0.0
0.035907 0.016880 0.0
0.040603 0.017108 0.0
0.045199 0.017379 0.0
0.049679 0.017701 0.0
0.054018 0.018091 0.0
0.058184 0.018569 0.0
0.062130 0.019169 0.0
0.065788 0.019953 0.0
0.069039 0.021047 0.0
0.071678 0.022663 0.0
0.073374 0.024972 0.0
0.073582 0.027788 0.0
0.070731 0.029927 0.0
0.058329 0.027270 0.0
0.026185 0.013143 0.0
0.002376 0.001239 0.0
0.000009 0.000005 0.0
0.000000 0.000000 0.0
0.000000 0.000000 0.0
0.000000 0.000000 0.0
0.000000 0.000000 0.0
0.000000 0.000000 0.0
0.000000 0.000000 0.0
0.000000 0.000000 0.0
0.006056 0.022033 0.0
0.011279 0.021446 0.0
0.016395 0.021335 0.0
0.021424 0.021424 0.0
0.026377 0.021590 0.0
0.031255 0.021798 0.0
0.036055 0.022045 0.0
0.040768 0.022336 0.0
0.045380 0.022680 0.0
0.049873 0.023089 0.0
0.054222 0.023584 0.0
0.058395 0.024191 0.0
0.062344 0.024954 0.0
0.065997 0.025950 0.0
0.069232 0.027342 0.0
0.071829 0.029405 0.0
0.073427 0.032372 0.0
0.073398 0.036020 0.0
0.069928 0.038743 0.0
0.055943 0.034664 0.0
0.023028 0.015465 0.0
0.001761 0.001231 0.0
0.000005 0.000003 0.0
0.000000 0.000000 0.0
0.000000 0.000000 0.0
0.000000 0.000000 0.0
0.000000 0.000000 0.0
0.000000 0.000000 0.0
0.000000 0.000000 0.0
0.000000 0.000000 0.0
0.006109 0.027090 0.0
0.011369 0.026397 0.0
0.016523 0.026267 0.0
0.021590 0.026377 0.0
0.026579 0.026579 0.0
0.031493 0.026832 0.0
0.036329 0.027132 0.0
0.041076 0.027484 0.0
0.045723 0.027900 0.0
0.050250 0.028396 0.0
0.054633 0.028994 0.0
0.058839 0.029727 0.0
0.062821 0.030648 0.0
0.066506 0.031852 0.0
0.069771 0.033534 0.0
0.072392 0.036032 0.0
0.073987 0.039653 0.0
0.073869 0.044155 0.0
0.070091 0.047554 0.0
0.055493 0.042445 0.0
0.022631 0.018857 0.0
0.001731 0.001502 0.0
0.000005 0.000004 0.0
0.000000 0.000000 0.0
0.000000 0.000000 0.0
0.000000 0.000000 0.0
0.000000 0.000000 0.0
0.000000 0.000000 0.0
0.000000 0.000000 0.0
0.000000 0.000000 0.0
0.006182 0.032064 0.0
0.011486 0.031277 0.0
0.016686 0.031125 0.0
0.021798 0.031255 0.0
0.026832 0.031493 0.0
0.031791 0.031791 0.0
0.036671 0.032143 0.0
0.041463 0.032556 0.0
0.046154 0.033043 0.0
0.050726 0.033624 0.0
0.055155 0.034323 0.0
0.059407 0.035179 0.0
0.063437 0.036255 0.0
0.067174 0.037659 0.0
0.070494 0.039620 0.0
0.073178 0.042535 0.0
0.074834 0.046787 0.0
0.074748 0.052137 0.0
0.070921 0.056291 0.0
0.056394 0.050674 0.0
0.023893 0.023461 0.0
0.002021 0.002069 0.0
0.000006 0.000007 0.0
0.000000 0.000000 0.0
0.000000 0.000000 0.0
0.000000 0.000000 0.0
0.000000 0.000000 0.0
0.000000 0.000000 0.0
0.000000 0.000000 0.0
0.000000 0.000000 0.0
0.006272 0.036949 0.0
0.011627 0.036081 0.0
0.016880 0.035907 0.0
0.022045 0.036055 0.0
0.027132 0.036329 0.0
0.032143 0.036671 0.0
0.037075 0.037075 0.0
0.041919 0.037548 0.0
0.046662 0.038106 0.0
0.051287 0.038769 0.0
0.055769 0.039568 0.0
0.060077 0.040545 0.0
0.064165 0.041771 0.0
0.067963 0.043369 0.0
0.071354 0.045597 0.0
0.074121 0.048909 0.0
0.075877 0.053762 0.0
0.075897 0.059937 0.0
0.072200 0.064916 0.0
0.058165 0.059315 0.0
0.026263 0.029344 0.0
0.002605 0.003039 0.0
0.000011 0.000014 0.0
0.000000 0.000000 0.0
0.000000 0.000000 0.0
0.000000 0.000000 0.0
0.000000 0.000000 0.0
0.000000 0.000000 0.0
0.000000 0.000000 0.0
0.000000 0.000000 0.0
0.006378 0.041736 0.0
0.011793 0.040802 0.0
0.017108 0.040603 0.0
0.022336 0.040768 0.0
0.027484 0.041076 0.0
0.032556 0.041463 0.0
0.037548 0.041919 0.0
0.042452 0.042452 0.0
0.047256 0.043080 0.0
0.051941 0.043826 0.0
0.056485 0.044723 0.0
0.060857 0.045819 0.0
0.065011 0.047192 0.0
0.068880 0.048977 0.0
0.072350 0.051461 0.0
0.075214 0.055149 0.0
0.077091 0.060570 0.0
0.077265 0.067541 0.0
0.073811 0.073399 0.0
0.060527 0.068298 0.0
0.029518 0.036582 0.0
0.003559 0.004616 0.0
0.000023 0.000031 0.0
0.000000 0.000000 0.0
0.000000 0.000000 0.0
0.000000 0.000000 0.0
0.000000 0.000000 0.0
0.000000 0.000000 0.0
0.000000 0.000000 0.0
0.000000 0.000000 0.0
0.006504 0.046411 0.0
0.011990 0.045427 0.0
0.017379 0.045199 0.0
0.022680 0.045380 0.0
0.027900 0.045723 0.0
0.033043 0.046154 0.0
0.038106 0.046662 0.0
0.043080 0.047256 0.0
0.047953 0.047953 0.0
0.052709 0.048781 0.0
0.057325 0.049776 0.0
0.061769 0.050989 0.0
0.065997 0.052505 0.0
0.069946 0.054473 0.0
0.073506 0.057201 0.0
0.076476 0.061243 0.0
0.078490 0.067198 0.0
0.078847 0.074932 0.0
0.075709 0.081715 0.0
0.063340 0.077535 0.0
0.033581 0.045245 0.0
0.005052 0.007143 0.0
0.000051 0.000074 0.0
0.000000 0.000000 0.0
0.000000 0.000000 0.0
0.000000 0.000000 0.0
0.000000 0.000000 0.0
0.000000 0.000000 0.0
0.000000 0.000000 0.0
0.000000 0.000000 0.0
0.006654 0.050951 0.0
0.012225 0.049937 0.0
0.017701 0.049679 0.0
0.023089 0.049873 0.0
0.028396 0.050250 0.0
0.033624 0.050726 0.0
0.038769 0.051287 0.0
0.043826 0.051941 0.0
0.048781 0.052709 0.0
0.053619 0.053619 0.0
0.058317 0.054710 0.0
0.062844 0.056039 0.0
0.067159 0.057696 0.0
0.071197 0.059841 0.0
0.074856 0.062803 0.0
0.077943 0.067177 0.0
0.080107 0.073632 0.0
0.080669 0.082093 0.0
0.077897 0.089830 0.0
0.066549 0.086931 0.0
0.038431 0.055344 0.0
0.007354 0.011151 0.0
0.000121 0.000188 0.0
0.000000 0.000000 0.0
0.000000 0.000000 0.0
0.000000 0.000000 0.0
0.000000 0.000000 0.0
0.000000 0.000000 0.0
0.000000 0.000000 0.0
0.000000 0.000000 0.0
0.006837 0.055330 0.0
0.012509 0.054310 0.0
0.018091 0.054018 0.0
0.023584 0.054222 0.0
0.028994 0.054633 0.0
0.034323 0.055155 0.0
0.039568 0.055769 0.0
0.044723 0.056485 0.0
0.049776 0.057325 0.0
0.054710 0.058317 0.0
0.059504 0.059504 0.0
0.064129 0.060948 0.0
0.068542 0.062744 0.0
0.072683 0.065060 0.0
0.076452 0.068244 0.0
0.079668 0.072929 0.0
0.081994 0.079849 0.0
0.082779 0.088998 0.0
0.080408 0.097708 0.0
0.070152 0.096375 0.0
0.044061 0.066784 0.0
0.010870 0.017412 0.0
0.000305 0.000500 0.0
0.000000 0.000000 0.0
0.000000 0.000000 0.0
0.000000 0.000000 0.0
0.000000 0.000000 0.0
0.000000 0.000000 0.0
0.000000 0.000000 0.0
0.000000 0.000000 0.0
0.007061 0.059509 0.0
0.012858 0.058515 0.0
0.018569 0.058184 0.0
0.024191 0.058395 0.0
0.029727 0.058839 0.0
0.035179 0.059407 0.0
0.040545 0.060077 0.0
0.045819 0.060857 0.0
0.050989 0.061769 0.0
0.056039 0.062844 0.0
0.060948 0.064129 0.0
0.065686 0.065686 0.0
0.070214 0.067619 0.0
0.074473 0.070103 0.0
0.078367 0.073499 0.0
0.081726 0.078472 0.0
0.084227 0.085818 0.0
0.085250 0.095614 0.0
0.083307 0.105301 0.0
0.074185 0.105748 0.0
0.050459 0.079318 0.0
0.016150 0.026918 0.0
0.000804 0.001373 0.0
0.000001 0.000002 0.0
0.000000 0.000000 0.0
0.000000 0.000000 0.0
0.000000 0.000000 0.0
0.000000 0.000000 0.0
0.000000 0.000000 0.0
0.000000 0.000000 0.0
0.007343 0.063434 0.0
0.013295 0.062508 0.0
0.019169 0.062130 0.0
0.024954 0.062344 0.0
0.030648 0.062821 0.0
0.036255 0.063437 0.0
0.041771 0.064165 0.0
0.047192 0.065011 0.0
0.052505 0.065997 0.0
0.057696 0.067159 0.0
0.062744 0.068542 0.0
0.067619 0.070214 0.0
0.072283 0.072283 0.0
0.076678 0.074930 0.0
0.080715 0.078527 0.0
0.084231 0.083765 0.0
0.086921 0.091498 0.0
0.088196 0.101897 0.0
0.086696 0.112553 0.0
0.078730 0.114921 0.0
0.057620 0.092546 0.0
0.023805 0.040608 0.0
0.002190 0.003836 0.0
0.000008 0.000015 0.0
0.000000 0.000000 0.0
0.000000 0.000000 0.0
0.000000 0.000000 0.0
0.000000 0.000000 0.0
0.000000 0.000000 0.0
0.000000 0.000000 0.0
0.007712 0.067020 0.0
0.013867 0.066220 0.0
0.019953 0.065788 0.0
0.025950 0.065997 0.0
0.031852 0.066506 0.0
0.037659 0.067174 0.0
0.043369 0.067963 0.0
0.048977 0.068880 0.0
0.054473 0.069946 0.0
0.059841 0.071197 0.0
0.065060 0.072683 0.0
0.070103 0.074473 0.0
0.074930 0.076678 0.0
0.079486 0.079486 0.0
0.083686 0.083275 0.0
0.087377 0.088755 0.0
0.090268 0.096835 0.0
0.091803 0.107789 0.0
0.090750 0.119396 0.0
0.083937 0.123756 0.0
0.065596 0.105961 0.0
0.034269 0.058616 0.0
0.006090 0.010693 0.0
0.000088 0.000157 0.0
0.000000 0.000000 0.0
0.000000 0.000000 0.0
0.000000 0.000000 0.0
0.000000 0.000000 0.0
0.000000 0.000000 0.0
0.000000 0.000000 0.0
0.008229 0.070124 0.0
0.014664 0.069539 0.0
0.021047 0.069039 0.0
0.027342 0.069232 0.0
0.033534 0.069771 0.0
0.039620 0.070494 0.0
0.045597 0.071354 0.0
0.051461 0.072350 0.0
0.057201 0.073506 0.0
0.062803 0.074856 0.0
0.068244 0.076452 0.0
0.073499 0.078367 0.0
0.078527 0.080715 0.0
0.083275 0.083686 0.0
0.087662 0.087662 0.0
0.091541 0.093362 0.0
0.094637 0.101747 0.0
0.096422 0.113209 0.0
0.095795 0.125744 0.0
0.090090 0.132115 0.0
0.074574 0.119033 0.0
0.047555 0.079174 0.0
0.016972 0.028498 0.0
0.001183 0.001986 0.0
0.000003 0.000004 0.0
0.000000 0.000000 0.0
0.000000 0.000000 0.0
0.000000 0.000000 0.0
0.000000 0.000000 0.0
0.000000 0.000000 0.0
0.008996 0.072494 0.0
0.015839 0.072267 0.0
0.022663 0.071678 0.0
0.029405 0.071829 0.0
0.036032 0.072392 0.0
0.042535 0.073178 0.0
0.048909 0.074121 0.0
0.055149 0.075214 0.0
0.061243 0.076476 0.0
0.067177 0.077943 0.0
0.072929 0.079668 0.0
0.078472 0.081726 0.0
0.083765 0.084231 0.0
0.088755 0.087377 0.0
0.093362 0.091541 0.0
0.097446 0.097446 0.0
0.100741 0.106099 0.0
0.102741 0.118026 0.0
0.102467 0.131478 0.0
0.097748 0.139866 0.0
0.084885 0.131410 0.0
0.062531 0.099412 0.0
0.035988 0.055602 0.0
0.010680 0.015931 0.0
0.000458 0.000673 0.0
0.000000 0.000001 0.0
0.000000 0.000000 0.0
0.000000 0.000000 0.0
0.000000 0.000000 0.0
0.000000 0.000000 0.0
0.010105 0.073765 0.0
0.017519 0.074099 0.0
0.024972 0.073374 0.0
0.032372 0.073427 0.0
0.039653 0.073987 0.0
0.046787 0.074834 0.0
0.053762 0.075877 0.0
0.060570 0.077091 0.0
0.067198 0.078490 0.0
0.073632 0.080107 0.0
0.079849 0.081994 0.0
0.085818 0.084227 0.0
0.091498 0.086921 0.0
0.096835 0.090268 0.0
0.101747 0.094637 0.0
0.106099 0.100741 0.0
0.109626 0.109626 0.0
0.111831 0.121981 0.0
0.111825 0.136366 0.0
0.107883 0.146827 0.0
0.097246 0.142906 0.0
0.078896 0.118444 0.0
0.056485 0.081779 0.0
0.033094 0.044931 0.0
0.009049 0.011819 0.0
0.000303 0.000390 0.0
0.000000 0.000000 0.0
0.000000 0.000000 0.0
0.000000 0.000000 0.0
0.000000 0.000000 0.0
0.011479 0.073508 0.0
0.019570 0.074562 0.0
0.027788 0.073582 0.0
0.036020 0.073398 0.0
0.044155 0.073869 0.0
0.052137 0.074748 0.0
0.059937 0.075897 0.0
0.067541 0.077265 0.0
0.074932 0.078847 0.0
0.082093 0.080669 0.0
0.088998 0.082779 0.0
0.095614 0.085250 0.0
0.101897 0.088196 0.0
0.107789 0.091803 0.0
0.113209 0.096422 0.0
0.118026 0.102741 0.0
0.121981 0.111831 0.0
0.124566 0.124566 0.0
0.124919 0.139912 0.0
0.121626 0.152594 0.0
0.112684 0.153267 0.0
0.097347 0.136042 0.0
0.078104 0.106364 0.0
0.057267 0.073647 0.0
0.032959 0.040183 0.0
0.007276 0.008656 0.0
0.000152 0.000179 0.0
0.000000 0.000000 0.0
0.000000 0.000000 0.0
0.000000 0.000000 0.0
0.012660 0.070965 0.0
0.021219 0.072413 0.0
0.029927 0.070731 0.0
0.038743 0.069928 0.0
0.047554 0.070091 0.0
0.056291 0.070921 0.0
0.064916 0.072200 0.0
0.073399 0.073811 0.0
0.081715 0.075709 0.0
0.089830 0.077897 0.0
0.097708 0.080408 0.0
0.105301 0.083307 0.0
0.112553 0.086696 0.0
0.119396 0.090750 0.0
0.125744 0.095795 0.0
0.131478 0.102467 0.0
0.136366 0.111825 0.0
0.139912 0.124919 0.0
0.141219 0.141219 0.0
0.138959 0.156279 0.0
0.131554 0.161751 0.0
0.118459 0.151709 0.0
0.101440 0.129053 0.0
0.082445 0.100985 0.0
0.060110 0.070326 0.0
0.029868 0.033854 0.0
0.004019 0.004499 0.0
0.000031 0.000035 0.0
0.000000 0.000000 0.0
0.000000 0.000000 0.0
0.012390 0.062774 0.0
0.020020 0.062403 0.0
0.027270 0.058329 0.0
0.034664 0.055943 0.0
0.042445 0.055493 0.0
0.050674 0.056394 0.0
0.059315 0.058165 0.0
0.068298 0.060527 0.0
0.077535 0.063340 0.0
0.086931 0.066549 0.0
0.096375 0.070152 0.0
0.105748 0.074185 0.0
0.114921 0.078730 0.0
0.123756 0.083937 0.0
0.132115 0.090090 0.0
0.139866 0.097748 0.0
0.146827 0.107883 0.0
0.152594 0.121626 0.0
0.156279 0.138959 0.0
0.156451 0.156451 0.0
0.151523 0.166851 0.0
0.140906 0.164088 0.0
0.125918 0.148788 0.0
0.108373 0.126059 0.0
0.087697 0.098998 0.0
0.058634 0.064372 0.0
0.019501 0.021093 0.0
0.000983 0.001058 0.0
0.000001 0.000001 0.0
0.000000 0.000000 0.0
0.008109 0.038897 0.0
0.011264 0.033068 0.0
0.013143 0.026185 0.0
0.015465 0.023028 0.0
0.018857 0.022631 0.0
0.023461 0.023893 0.0
0.029344 0.026263 0.0
0.036582 0.029518 0.0
0.045245 0.033581 0.0
0.055344 0.038431 0.0
0.066784 0.044061 0.0
0.079318 0.050459 0.0
0.092546 0.057620 0.0
0.105961 0.065596 0.0
0.119033 0.074574 0.0
0.131410 0.084885 0.0
0.142906 0.097246 0.0
0.153267 0.112684 0.0
0.161751 0.131554 0.0
0.166851 0.151523 0.0
0.166701 0.166701 0.0
0.160336 0.171153 0.0
0.148606 0.163636 0.0
0.133227 0.147199 0.0
0.114373 0.124663 0.0
0.087333 0.093442 0.0
0.043424 0.045845 0.0
0.005724 0.006010 0.0
0.000043 0.000045 0.0
0.000000 0.000000 0.0
0.001678 0.007876 0.0
0.001550 0.004402 0.0
0.001239 0.002376 0.0
0.001231 0.001761 0.0
0.001502 0.001731 0.0
0.002069 0.002021 0.0
0.003039 0.002605 0.0
0.004616 0.003559 0.0
0.007143 0.005052 0.0
0.011151 0.007354 0.0
0.017412 0.010870 0.0
0.026918 0.016150 0.0
0.040608 0.023805 0.0
0.058616 0.034269 0.0
0.079174 0.047555 0.0
0.099412 0.062531 0.0
0.118444 0.078896 0.0
0.136042 0.097347 0.0
0.151709 0.118459 0.0
0.164088 0.140906 0.0
0.171153 0.160336 0.0
0.171450 0.171450 0.0
0.165191 0.171775 0.0
0.153789 0.162473 0.0
0.137874 0.145547 0.0
0.113370 0.118599 0.0
0.067371 0.069842 0.0
0.013766 0.014206 0.0
0.000251 0.000258 0.0
0.000000 0.000000 0.0
0.000030 0.000141 0.0
0.000012 0.000034 0.0
0.000005 0.000009 0.0
0.000003 0.000005 0.0
0.000004 0.000005 0.0
0.000007 0.000006 0.0
0.000014 0.000011 0.0
0.000031 0.000023 0.0
0.000074 0.000051 0.0
0.000188 0.000121 0.0
0.000500 0.000305 0.0
0.001373 0.000804 0.0
0.003836 0.002190 0.0
0.010693 0.006090 0.0
0.028498 0.016972 0.0
0.055602 0.035988 0.0
0.081779 0.056485 0.0
0.106364 0.078104 0.0
0.129053 0.101440 0.0
0.148788 0.125918 0.0
0.163636 0.148606 0.0
0.171775 0.165191 0.0
0.172675 0.172675 0.0
0.167121 0.170718 0.0
0.155682 0.160157 0.0
0.134170 0.137772 0.0
0.084896 0.086780 0.0
0.018877 0.019239 0.0
0.000404 0.000411 0.0
0.000000 0.000000 0.0
0.000000 0.000000 0.0
0.000000 0.000000 0.0
0.000000 0.000000 0.0
0.000000 0.000000 0.0
0.000000 0.000000 0.0
0.000000 0.000000 0.0
0.000000 0.000000 0.0
0.000000 0.000000 0.0
0.000000 0.000000 0.0
0.000000 0.000000 0.0
0.000000 0.000000 0.0
0.000002 0.000001 0.0
0.000015 0.000008 0.0
0.000157 0.000088 0.0
0.001986 0.001183 0.0
0.015931 0.010680 0.0
0.044931 0.033094 0.0
0.073647 0.057267 0.0
0.100985 0.082445 0.0
0.126059 0.108373 0.0
0.147199 0.133227 0.0
0.162473 0.153789 0.0
0.170718 0.167121 0.0
0.171897 0.171897 0.0
0.165878 0.167601 0.0
0.146336 0.148221 0.0
0.087230 0.088251 0.0
0.014588 0.014739 0.0
0.000172 0.000174 0.0
0.000000 0.000000 0.0
0.000000 0.000000 0.0
0.000000 0.000000 0.0
0.000000 0.000000 0.0
0.000000 0.000000 0.0
0.000000 0.000000 0.0
0.000000 0.000000 0.0
0.000000 0.000000 0.0
0.000000 0.000000 0.0
0.000000 0.000000 0.0
0.000000 0.000000 0.0
0.000000 0.000000 0.0
0.000000 0.000000 0.0
0.000000 0.000000 0.0
0.000000 0.000000 0.0
0.000004 0.000003 0.0
0.000673 0.000458 0.0
0.011819 0.009049 0.0
0.040183 0.032959 0.0
0.070326 0.060110 0.0
0.098998 0.087697 0.0
0.124663 0.114373 0.0
0.145547 0.137874 0.0
0.160157 0.155682 0.0
0.167601 0.165878 0.0
0.165831 0.165831 0.0
0.140544 0.141137 0.0
0.059606 0.059899 0.0
0.003977 0.003995 0.0
0.000007 0.000008 0.0
0.000000 0.000000 0.0
0.000000 0.000000 0.0
0.000000 0.000000 0.0
0.000000 0.000000 0.0
0.000000 0.000000 0.0
0.000000 0.000000 0.0
0.000000 0.000000 0.0
0.000000 0.000000 0.0
0.000000 0.000000 0.0
0.000000 0.000000 0.0
0.000000 0.000000 0.0
0.000000 0.000000 0.0
0.000000 0.000000 0.0
0.000000 0.000000 0.0
0.000000 0.000000 0.0
0.000000 0.000000 0.0
0.000001 0.000000 0.0
0.000390 0.000303 0.0
0.008656 0.007276 0.0
0.033854 0.029868 0.0
0.064372 0.058634 0.0
0.093442 0.087333 0.0
0.118599 0.113370 0.0
0.137772 0.134170 0.0
0.148221 0.146336 0.0
0.141137 0.140544 0.0
0.087454 0.087454 0.0
0.012797 0.012814 0.0
0.000091 0.000091 0.0
0.000000 0.000000 0.0
0.000000 0.000000 0.0
0.000000 0.000000 0.0
0.000000 0.000000 0.0
0.000000 0.000000 0.0
0.000000 0.000000 0.0
0.000000 0.000000 0.0
0.000000 0.000000 0.0
0.000000 0.000000 0.0
0.000000 0.000000 0.0
0.000000 0.000000 0.0
0.000000 0.000000 0.0
0.000000 0.000000 0.0
0.000000 0.000000 0.0
0.000000 0.000000 0.0
0.000000 0.000000 0.0
0.000000 0.000000 0.0
0.000000 0.000000 0.0
0.000000 0.000000 0.0
0.000179 0.000152 0.0
0.004499 0.004019 0.0
0.021093 0.019501 0.0
0.045845 0.043424 0.0
0.069842 0.067371 0.0
0.086780 0.084896 0.0
0.088251 0.087230 0.0
0.059899 0.059606 0.0
0.012814 0.012797 0.0
0.000167 0.000167 0.0
0.000000 0.000000 0.0
0.000000 0.000000 0.0
0.000000 0.000000 0.0
0.000000 0.000000 0.0
0.000000 0.000000 0.0
0.000000 0.000000 0.0
0.000000 0.000000 0.0
0.000000 0.000000 0.0
0.000000 0.000000 0.0
0.000000 0.000000 0.0
0.000000 0.000000 0.0
0.000000 0.000000 0.0
0.000000 0.000000 0.0
0.000000 0.000000 0.0
0.000000 0.000000 0.0
0.000000 0.000000 0.0
0.000000 0.000000 0.0
0.000000 0.000000 0.0
0.000000 0.000000 0.0
0.000000 0.000000 0.0
0.000000 0.000000 0.0
0.000035 0.000031 0.0
0.001058 0.000983 0.0
0.006010 0.005724 0.0
0.014206 0.013766 0.0
0.019239 0.018877 0.0
0.014739 0.014588 0.0
0.003995 0.003977 0.0
0.000091 0.000091 0.0
0.000000 0.000000 0.0
0.000000 0.000000 0.0
0.000000 0.000000 0.0
0.000000 0.000000 0.0
0.000000 0.000000 0.0
0.000000 0.000000 0.0
0.000000 0.000000 0.0
0.000000 0.000000 0.0
0.000000 0.000000 0.0
0.000000 0.000000 0.0
0.000000 0.000000 0.0
0.000000 0.000000 0.0
0.000000 0.000000 0.0
0.000000 0.000000 0.0
0.000000 0.000000 0.0
0.000000 0.000000 0.0
0.000000 0.000000 0.0
0.000000 0.000000 0.0
0.000000 0.000000 0.0
0.000000 0.000000 0.0
0.000000 0.000000 0.0
0.000000 0.000000 0.0
0.000000 0.000000 0.0
0.000001 0.000001 0.0
0.000045 0.000043 0.0
0.000258 0.000251 0.0
0.000411 0.000404 0.0
0.000174 0.000172 0.0
0.000008 0.000007 0.0
0.000000 0.000000 0.0
0.000000 0.000000 0.0
0.000000 0.000000 0.0
0.000000 0.000000 0.0
0.000000 0.000000 0.0
0.000000 0.000000 0.0
0.000000 0.000000 0.0
0.000000 0.000000 0.0
0.000000 0.000000 0.0
0.000000 0.000000 0.0
0.000000 0.000000 0.0
0.000000 0.000000 0.0
0.000000 0.000000 0.0
0.000000 0.000000 0.0
0.000000 0.000000 0.0
0.000000 0.000000 0.0
0.000000 0.000000 0.0
0.000000 0.000000 0.0
0.000000 0.000000 0.0
0.000000 0.000000 0.0
0.000000 0.000000 0.0
0.000000 0.000000 0.0
0.000000 0.000000 0.0
0.000000 0.000000 0.0
0.000000 0.000000 0.0
0.000000 0.000000 0.0
0.000000 0.000000 0.0
0.000000 0.000000 0.0
0.000000 0.000000 0.0
0.000000 0.000000 0.0
0.000000 0.000000 0.0
0.000000 0.000000 0.0
0.000000 0.000000 0.0
0.000000 0.000000 0.0
0.000000 0.000000 0.0
</DataArray>
   </CellData>
  </Piece>
 </UnstructuredGrid>
</VTKFile>
