<VTKFile type="UnstructuredGrid" version="0.1" byte_order="LittleEndian">
 <UnstructuredGrid>
  <Piece NumberOfPoints="961" NumberOfCells="900">
   <Points>
    <DataArray name="Position" type="Float32" NumberOfComponents="3" format="ascii">
    0.000000 0.000000 0.0
    0.066667 0.000000 0.0
    0.133333 0.000000 0.0
    0.200000 0.000000 0.0
    0.266667 0.000000 0.0
    0.333333 0.000000 0.0
    0.400000 0.000000 0.0
    0.466667 0.000000 0.0
    0.533333 0.000000 0.0
    0.600000 0.000000 0.0
    0.666667 0.000000 0.0
    0.733333 0.000000 0.0
    0.800000 0.000000 0.0
    0.866667 0.000000 0.0
    0.933333 0.000000 0.0
    1.000000 0.000000 0.0
    1.066667 0.000000 0.0
    1.133333 0.000000 0.0
    1.200000 0.000000 0.0
    1.266667 0.000000 0.0
    1.333333 0.000000 0.0
    1.400000 0.000000 0.0
    1.466667 0.000000 0.0
    1.533333 0.000000 0.0
    1.600000 0.000000 0.0
    1.666667 0.000000 0.0
    1.733333 0.000000 0.0
    1.800000 0.000000 0.0
    1.866667 0.000000 0.0
    1.933333 0.000000 0.0
    2.000000 0.000000 0.0
    0.000000 0.066667 0.0
    0.066667 0.066667 0.0
    0.133333 0.066667 0.0
    0.200000 0.066667 0.0
    0.266667 0.066667 0.0
    0.333333 0.066667 0.0
    0.400000 0.066667 0.0
    0.466667 0.066667 0.0
    0.533333 0.066667 0.0
    0.600000 0.066667 0.0
    0.666667 0.066667 0.0
    0.733333 0.066667 0.0
    0.800000 0.066667 0.0
    0.866667 0.066667 0.0
    0.933333 0.066667 0.0
    1.000000 0.066667 0.0
    1.066667 0.066667 0.0
    1.133333 0.066667 0.0
    1.200000 0.066667 0.0
    1.266667 0.066667 0.0
    1.333333 0.066667 0.0
    1.400000 0.066667 0.0
    1.466667 0.066667 0.0
    1.533333 0.066667 0.0
    1.600000 0.066667 0.0
    1.666667 0.066667 0.0
    1.733333 0.066667 0.0
    1.800000 0.066667 0.0
    1.866667 0.066667 0.0
    1.933333 0.066667 0.0
    2.000000 0.066667 0.0
    0.000000 0.133333 0.0
    0.066667 0.133333 0.0
    0.133333 0.133333 0.0
    0.200000 0.133333 0.0
    0.266667 0.133333 0.0
    0.333333 0.133333 0.0
    0.400000 0.133333 0.0
    0.466667 0.133333 0.0
    0.533333 0.133333 0.0
    0.600000 0.133333 0.0
    0.666667 0.133333 0.0
    0.733333 0.133333 0.0
    0.800000 0.133333 0.0
    0.866667 0.133333 0.0
    0.933333 0.133333 0.0
    1.000000 0.133333 0.0
    1.066667 0.133333 0.0
    1.133333 0.133333 0.0
    1.200000 0.133333 0.0
    1.266667 0.133333 0.0
    1.333333 0.133333 0.0
    1.400000 0.133333 0.0
    1.466667 0.133333 0.0
    1.533333 0.133333 0.0
    1.600000 0.133333 0.0
    1.666667 0.133333 0.0
    1.733333 0.133333 0.0
    1.800000 0.133333 0.0
    1.866667 0.133333 0.0
    1.933333 0.133333 0.0
    2.000000 0.133333 0.0
    0.000000 0.200000 0.0
    0.066667 0.200000 0.0
    0.133333 0.200000 0.0
    0.200000 0.200000 0.0
    0.266667 0.200000 0.0
    0.333333 0.200000 0.0
    0.400000 0.200000 0.0
    0.466667 0.200000 0.0
    0.533333 0.200000 0.0
    0.600000 0.200000 0.0
    0.666667 0.200000 0.0
    0.733333 0.200000 0.0
    0.800000 0.200000 0.0
    0.866667 0.200000 0.0
    0.933333 0.200000 0.0
    1.000000 0.200000 0.0
    1.066667 0.200000 0.0
    1.133333 0.200000 0.0
    1.200000 0.200000 0.0
    1.266667 0.200000 0.0
    1.333333 0.200000 0.0
    1.400000 0.200000 0.0
    1.466667 0.200000 0.0
    1.533333 0.200000 0.0
    1.600000 0.200000 0.0
    1.666667 0.200000 0.0
    1.733333 0.200000 0.0
    1.800000 0.200000 0.0
    1.866667 0.200000 0.0
    1.933333 0.200000 0.0
    2.000000 0.200000 0.0
    0.000000 0.266667 0.0
    0.066667 0.266667 0.0
    0.133333 0.266667 0.0
    0.200000 0.266667 0.0
    0.266667 0.266667 0.0
    0.333333 0.266667 0.0
    0.400000 0.266667 0.0
    0.466667 0.266667 0.0
    0.533333 0.266667 0.0
    0.600000 0.266667 0.0
    0.666667 0.266667 0.0
    0.733333 0.266667 0.0
    0.800000 0.266667 0.0
    0.866667 0.266667 0.0
    0.933333 0.266667 0.0
    1.000000 0.266667 0.0
    1.066667 0.266667 0.0
    1.133333 0.266667 0.0
    1.200000 0.266667 0.0
    1.266667 0.266667 0.0
    1.333333 0.266667 0.0
    1.400000 0.266667 0.0
    1.466667 0.266667 0.0
    1.533333 0.266667 0.0
    1.600000 0.266667 0.0
    1.666667 0.266667 0.0
    1.733333 0.266667 0.0
    1.800000 0.266667 0.0
    1.866667 0.266667 0.0
    1.933333 0.266667 0.0
    2.000000 0.266667 0.0
    0.000000 0.333333 0.0
    0.066667 0.333333 0.0
    0.133333 0.333333 0.0
    0.200000 0.333333 0.0
    0.266667 0.333333 0.0
    0.333333 0.333333 0.0
    0.400000 0.333333 0.0
    0.466667 0.333333 0.0
    0.533333 0.333333 0.0
    0.600000 0.333333 0.0
    0.666667 0.333333 0.0
    0.733333 0.333333 0.0
    0.800000 0.333333 0.0
    0.866667 0.333333 0.0
    0.933333 0.333333 0.0
    1.000000 0.333333 0.0
    1.066667 0.333333 0.0
    1.133333 0.333333 0.0
    1.200000 0.333333 0.0
    1.266667 0.333333 0.0
    1.333333 0.333333 0.0
    1.400000 0.333333 0.0
    1.466667 0.333333 0.0
    1.533333 0.333333 0.0
    1.600000 0.333333 0.0
    1.666667 0.333333 0.0
    1.733333 0.333333 0.0
    1.800000 0.333333 0.0
    1.866667 0.333333 0.0
    1.933333 0.333333 0.0
    2.000000 0.333333 0.0
    0.000000 0.400000 0.0
    0.066667 0.400000 0.0
    0.133333 0.400000 0.0
    0.200000 0.400000 0.0
    0.266667 0.400000 0.0
    0.333333 0.400000 0.0
    0.400000 0.400000 0.0
    0.466667 0.400000 0.0
    0.533333 0.400000 0.0
    0.600000 0.400000 0.0
    0.666667 0.400000 0.0
    0.733333 0.400000 0.0
    0.800000 0.400000 0.0
    0.866667 0.400000 0.0
    0.933333 0.400000 0.0
    1.000000 0.400000 0.0
    1.066667 0.400000 0.0
    1.133333 0.400000 0.0
    1.200000 0.400000 0.0
    1.266667 0.400000 0.0
    1.333333 0.400000 0.0
    1.400000 0.400000 0.0
    1.466667 0.400000 0.0
    1.533333 0.400000 0.0
    1.600000 0.400000 0.0
    1.666667 0.400000 0.0
    1.733333 0.400000 0.0
    1.800000 0.400000 0.0
    1.866667 0.400000 0.0
    1.933333 0.400000 0.0
    2.000000 0.400000 0.0
    0.000000 0.466667 0.0
    0.066667 0.466667 0.0
    0.133333 0.466667 0.0
    0.200000 0.466667 0.0
    0.266667 0.466667 0.0
    0.333333 0.466667 0.0
    0.400000 0.466667 0.0
    0.466667 0.466667 0.0
    0.533333 0.466667 0.0
    0.600000 0.466667 0.0
    0.666667 0.466667 0.0
    0.733333 0.466667 0.0
    0.800000 0.466667 0.0
    0.866667 0.466667 0.0
    0.933333 0.466667 0.0
    1.000000 0.466667 0.0
    1.066667 0.466667 0.0
    1.133333 0.466667 0.0
    1.200000 0.466667 0.0
    1.266667 0.466667 0.0
    1.333333 0.466667 0.0
    1.400000 0.466667 0.0
    1.466667 0.466667 0.0
    1.533333 0.466667 0.0
    1.600000 0.466667 0.0
    1.666667 0.466667 0.0
    1.733333 0.466667 0.0
    1.800000 0.466667 0.0
    1.866667 0.466667 0.0
    1.933333 0.466667 0.0
    2.000000 0.466667 0.0
    0.000000 0.533333 0.0
    0.066667 0.533333 0.0
    0.133333 0.533333 0.0
    0.200000 0.533333 0.0
    0.266667 0.533333 0.0
    0.333333 0.533333 0.0
    0.400000 0.533333 0.0
    0.466667 0.533333 0.0
    0.533333 0.533333 0.0
    0.600000 0.533333 0.0
    0.666667 0.533333 0.0
    0.733333 0.533333 0.0
    0.800000 0.533333 0.0
    0.866667 0.533333 0.0
    0.933333 0.533333 0.0
    1.000000 0.533333 0.0
    1.066667 0.533333 0.0
    1.133333 0.533333 0.0
    1.200000 0.533333 0.0
    1.266667 0.533333 0.0
    1.333333 0.533333 0.0
    1.400000 0.533333 0.0
    1.466667 0.533333 0.0
    1.533333 0.533333 0.0
    1.600000 0.533333 0.0
    1.666667 0.533333 0.0
    1.733333 0.533333 0.0
    1.800000 0.533333 0.0
    1.866667 0.533333 0.0
    1.933333 0.533333 0.0
    2.000000 0.533333 0.0
    0.000000 0.600000 0.0
    0.066667 0.600000 0.0
    0.133333 0.600000 0.0
    0.200000 0.600000 0.0
    0.266667 0.600000 0.0
    0.333333 0.600000 0.0
    0.400000 0.600000 0.0
    0.466667 0.600000 0.0
    0.533333 0.600000 0.0
    0.600000 0.600000 0.0
    0.666667 0.600000 0.0
    0.733333 0.600000 0.0
    0.800000 0.600000 0.0
    0.866667 0.600000 0.0
    0.933333 0.600000 0.0
    1.000000 0.600000 0.0
    1.066667 0.600000 0.0
    1.133333 0.600000 0.0
    1.200000 0.600000 0.0
    1.266667 0.600000 0.0
    1.333333 0.600000 0.0
    1.400000 0.600000 0.0
    1.466667 0.600000 0.0
    1.533333 0.600000 0.0
    1.600000 0.600000 0.0
    1.666667 0.600000 0.0
    1.733333 0.600000 0.0
    1.800000 0.600000 0.0
    1.866667 0.600000 0.0
    1.933333 0.600000 0.0
    2.000000 0.600000 0.0
    0.000000 0.666667 0.0
    0.066667 0.666667 0.0
    0.133333 0.666667 0.0
    0.200000 0.666667 0.0
    0.266667 0.666667 0.0
    0.333333 0.666667 0.0
    0.400000 0.666667 0.0
    0.466667 0.666667 0.0
    0.533333 0.666667 0.0
    0.600000 0.666667 0.0
    0.666667 0.666667 0.0
    0.733333 0.666667 0.0
    0.800000 0.666667 0.0
    0.866667 0.666667 0.0
    0.933333 0.666667 0.0
    1.000000 0.666667 0.0
    1.066667 0.666667 0.0
    1.133333 0.666667 0.0
    1.200000 0.666667 0.0
    1.266667 0.666667 0.0
    1.333333 0.666667 0.0
    1.400000 0.666667 0.0
    1.466667 0.666667 0.0
    1.533333 0.666667 0.0
    1.600000 0.666667 0.0
    1.666667 0.666667 0.0
    1.733333 0.666667 0.0
    1.800000 0.666667 0.0
    1.866667 0.666667 0.0
    1.933333 0.666667 0.0
    2.000000 0.666667 0.0
    0.000000 0.733333 0.0
    0.066667 0.733333 0.0
    0.133333 0.733333 0.0
    0.200000 0.733333 0.0
    0.266667 0.733333 0.0
    0.333333 0.733333 0.0
    0.400000 0.733333 0.0
    0.466667 0.733333 0.0
    0.533333 0.733333 0.0
    0.600000 0.733333 0.0
    0.666667 0.733333 0.0
    0.733333 0.733333 0.0
    0.800000 0.733333 0.0
    0.866667 0.733333 0.0
    0.933333 0.733333 0.0
    1.000000 0.733333 0.0
    1.066667 0.733333 0.0
    1.133333 0.733333 0.0
    1.200000 0.733333 0.0
    1.266667 0.733333 0.0
    1.333333 0.733333 0.0
    1.400000 0.733333 0.0
    1.466667 0.733333 0.0
    1.533333 0.733333 0.0
    1.600000 0.733333 0.0
    1.666667 0.733333 0.0
    1.733333 0.733333 0.0
    1.800000 0.733333 0.0
    1.866667 0.733333 0.0
    1.933333 0.733333 0.0
    2.000000 0.733333 0.0
    0.000000 0.800000 0.0
    0.066667 0.800000 0.0
    0.133333 0.800000 0.0
[...]
   <CellData Vectors="vectors">
<DataArray type="Float32" Name="cellCenteredVelocity" NumberOfComponents="3" format="ascii">
0.007581 0.007581 0.0
0.014363 0.007178 0.0
0.020989 0.007100 0.0
0.027485 0.007133 0.0
0.033863 0.007208 0.0
0.040125 0.007308 0.0
0.046261 0.007429 0.0
0.052253 0.007574 0.0
0.058076 0.007749 0.0
0.063695 0.007962 0.0
0.069062 0.008223 0.0
0.074112 0.008551 0.0
0.078746 0.008974 0.0
0.082806 0.009549 0.0
0.085998 0.010403 0.0
0.087808 0.011721 0.0
0.087526 0.013517 0.0
0.083992 0.015198 0.0
0.072770 0.014904 0.0
0.042103 0.009220 0.0
0.007195 0.001619 0.0
0.000092 0.000021 0.0
0.000000 0.000000 0.0
0.000000 0.000000 0.0
0.000000 0.000000 0.0
0.000000 0.000000 0.0
0.000000 0.000000 0.0
0.000000 0.000000 0.0
0.000000 0.000000 0.0
0.000000 0.000000 0.0
0.007178 0.014363 0.0
0.013698 0.013698 0.0
0.020060 0.013605 0.0
0.026302 0.013676 0.0
0.032440 0.013804 0.0
0.038476 0.013968 0.0
0.044398 0.014165 0.0
0.050190 0.014401 0.0
0.055830 0.014685 0.0
0.061285 0.015028 0.0
0.066514 0.015450 0.0
0.071459 0.015977 0.0
0.076033 0.016659 0.0
0.080101 0.017582 0.0
0.083408 0.018950 0.0
0.085504 0.021044 0.0
0.085650 0.023837 0.0
0.082090 0.026201 0.0
0.067876 0.024254 0.0
0.031273 0.012006 0.0
0.003005 0.001199 0.0
0.000012 0.000005 0.0
0.000000 0.000000 0.0
0.000000 0.000000 0.0
0.000000 0.000000 0.0
0.000000 0.000000 0.0
0.000000 0.000000 0.0
0.000000 0.000000 0.0
0.000000 0.000000 0.0
0.000000 0.000000 0.0
0.007100 0.020989 0.0
0.013605 0.020060 0.0
0.019947 0.019947 0.0
0.026166 0.020055 0.0
0.032278 0.020238 0.0
0.038283 0.020468 0.0
0.044172 0.020744 0.0
0.049926 0.021073 0.0
0.055521 0.021468 0.0
0.060925 0.021946 0.0
0.066094 0.022533 0.0
0.070966 0.023268 0.0
0.075451 0.024218 0.0
0.079403 0.025505 0.0
0.082552 0.027417 0.0
0.084406 0.030349 0.0
0.084109 0.034264 0.0
0.079490 0.037419 0.0
0.062335 0.033350 0.0
0.024038 0.014035 0.0
0.001578 0.000963 0.0
0.000003 0.000002 0.0
0.000000 0.000000 0.0
0.000000 0.000000 0.0
0.000000 0.000000 0.0
0.000000 0.000000 0.0
0.000000 0.000000 0.0
0.000000 0.000000 0.0
0.000000 0.000000 0.0
0.000000 0.000000 0.0
0.007133 0.027485 0.0
0.013676 0.026302 0.0
0.020055 0.026166 0.0
0.026309 0.026309 0.0
0.032454 0.026547 0.0
0.038490 0.026842 0.0
0.044408 0.027195 0.0
0.050189 0.027617 0.0
0.055809 0.028122 0.0
0.061235 0.028733 0.0
0.066422 0.029484 0.0
0.071305 0.030424 0.0
0.075794 0.031638 0.0
0.079735 0.033287 0.0
0.082850 0.035737 0.0
0.084607 0.039517 0.0
0.084052 0.044607 0.0
0.078742 0.048687 0.0
0.060086 0.042789 0.0
0.021753 0.017059 0.0
0.001277 0.001047 0.0
0.000002 0.000002 0.0
0.000000 0.000000 0.0
0.000000 0.000000 0.0
0.000000 0.000000 0.0
0.000000 0.000000 0.0
0.000000 0.000000 0.0
0.000000 0.000000 0.0
0.000000 0.000000 0.0
0.000000 0.000000 0.0
0.007208 0.033863 0.0
0.013804 0.032440 0.0
0.020238 0.032278 0.0
0.026547 0.032454 0.0
0.032745 0.032745 0.0
0.038833 0.033105 0.0
0.044802 0.033535 0.0
0.050635 0.034047 0.0
0.056306 0.034660 0.0
0.061783 0.035403 0.0
0.067020 0.036314 0.0
0.071954 0.037454 0.0
0.076492 0.038926 0.0
0.080483 0.040924 0.0
0.083644 0.043896 0.0
0.085430 0.048499 0.0
0.084829 0.054763 0.0
0.079266 0.059874 0.0
0.060237 0.052770 0.0
0.022122 0.021429 0.0
0.001362 0.001381 0.0
0.000002 0.000002 0.0
0.000000 0.000000 0.0
0.000000 0.000000 0.0
0.000000 0.000000 0.0
0.000000 0.000000 0.0
0.000000 0.000000 0.0
0.000000 0.000000 0.0
0.000000 0.000000 0.0
0.000000 0.000000 0.0
0.007308 0.040125 0.0
0.013968 0.038476 0.0
0.020468 0.038283 0.0
0.026842 0.038490 0.0
0.033105 0.038833 0.0
0.039258 0.039258 0.0
0.045291 0.039764 0.0
0.051188 0.040365 0.0
0.056924 0.041086 0.0
0.062466 0.041957 0.0
0.067770 0.043025 0.0
0.072774 0.044360 0.0
0.077384 0.046083 0.0
0.081453 0.048420 0.0
0.084701 0.051890 0.0
0.086587 0.057280 0.0
0.086073 0.064688 0.0
0.080555 0.070916 0.0
0.061817 0.063301 0.0
0.023963 0.027206 0.0
0.001682 0.002001 0.0
0.000004 0.000005 0.0
0.000000 0.000000 0.0
0.000000 0.000000 0.0
0.000000 0.000000 0.0
0.000000 0.000000 0.0
0.000000 0.000000 0.0
0.000000 0.000000 0.0
0.000000 0.000000 0.0
0.000000 0.000000 0.0
0.007429 0.046261 0.0
0.014165 0.044398 0.0
0.020744 0.044172 0.0
0.027195 0.044408 0.0
0.033535 0.044802 0.0
0.039764 0.045291 0.0
0.045873 0.045873 0.0
0.051845 0.046564 0.0
0.057658 0.047390 0.0
0.063278 0.048388 0.0
0.068661 0.049611 0.0
0.073746 0.051138 0.0
0.078443 0.053105 0.0
0.082607 0.055768 0.0
0.085966 0.059715 0.0
0.087988 0.065853 0.0
0.087640 0.074363 0.0
0.082349 0.081779 0.0
0.064290 0.074318 0.0
0.026847 0.034491 0.0
0.002252 0.003037 0.0
0.000007 0.000010 0.0
0.000000 0.000000 0.0
0.000000 0.000000 0.0
0.000000 0.000000 0.0
0.000000 0.000000 0.0
0.000000 0.000000 0.0
0.000000 0.000000 0.0
0.000000 0.000000 0.0
0.000000 0.000000 0.0
0.007574 0.052253 0.0
0.014401 0.050190 0.0
0.021073 0.049926 0.0
0.027617 0.050189 0.0
0.034047 0.050635 0.0
0.040365 0.051188 0.0
0.046564 0.051845 0.0
0.052625 0.052625 0.0
0.058528 0.053558 0.0
0.064238 0.054682 0.0
0.069714 0.056057 0.0
0.074894 0.057773 0.0
0.079691 0.059979 0.0
0.083963 0.062958 0.0
0.087448 0.067360 0.0
0.089631 0.074205 0.0
0.089496 0.083770 0.0
0.084547 0.092432 0.0
0.067410 0.085736 0.0
0.030669 0.043444 0.0
0.003178 0.004735 0.0
0.000015 0.000023 0.0
0.000000 0.000000 0.0
0.000000 0.000000 0.0
0.000000 0.000000 0.0
0.000000 0.000000 0.0
0.000000 0.000000 0.0
0.000000 0.000000 0.0
0.000000 0.000000 0.0
0.000000 0.000000 0.0
0.007749 0.058076 0.0
0.014685 0.055830 0.0
0.021468 0.055521 0.0
0.028122 0.055809 0.0
0.034660 0.056306 0.0
0.041086 0.056924 0.0
0.047390 0.057658 0.0
0.053558 0.058528 0.0
0.059565 0.059565 0.0
0.065382 0.060816 0.0
0.070965 0.062342 0.0
0.076255 0.064243 0.0
0.081167 0.066683 0.0
0.085562 0.069969 0.0
0.089190 0.074804 0.0
0.091553 0.082315 0.0
0.091665 0.092886 0.0
0.087135 0.102838 0.0
0.071089 0.097457 0.0
0.035459 0.054230 0.0
0.004660 0.007515 0.0
0.000036 0.000059 0.0
0.000000 0.000000 0.0
0.000000 0.000000 0.0
0.000000 0.000000 0.0
0.000000 0.000000 0.0
0.000000 0.000000 0.0
0.000000 0.000000 0.0
0.000000 0.000000 0.0
0.000000 0.000000 0.0
0.007962 0.063695 0.0
0.015028 0.061285 0.0
0.021946 0.060925 0.0
0.028733 0.061235 0.0
0.035403 0.061783 0.0
0.041957 0.062466 0.0
0.048388 0.063278 0.0
0.054682 0.064238 0.0
0.060816 0.065382 0.0
0.066758 0.066758 0.0
0.072468 0.068435 0.0
0.077886 0.070520 0.0
0.082931 0.073189 0.0
0.087467 0.076771 0.0
0.091255 0.082018 0.0
0.093817 0.090152 0.0
0.094204 0.101677 0.0
0.090149 0.112950 0.0
0.075323 0.109361 0.0
0.041293 0.066942 0.0
0.007039 0.012069 0.0
0.000092 0.000162 0.0
0.000000 0.000000 0.0
0.000000 0.000000 0.0
0.000000 0.000000 0.0
0.000000 0.000000 0.0
0.000000 0.000000 0.0
0.000000 0.000000 0.0
0.000000 0.000000 0.0
0.000000 0.000000 0.0
0.008223 0.069062 0.0
0.015450 0.066514 0.0
0.022533 0.066094 0.0
0.029484 0.066422 0.0
0.036314 0.067020 0.0
0.043025 0.067770 0.0
0.049611 0.068661 0.0
0.056057 0.069714 0.0
0.062342 0.070965 0.0
0.068435 0.072468 0.0
0.074296 0.074296 0.0
0.079866 0.076562 0.0
0.085065 0.079456 0.0
0.089764 0.083325 0.0
0.093733 0.088961 0.0
0.096517 0.097673 0.0
0.097205 0.110096 0.0
0.093671 0.122705 0.0
0.080163 0.121308 0.0
0.048257 0.081511 0.0
0.010870 0.019471 0.0
0.000253 0.000465 0.0
0.000000 0.000000 0.0
0.000000 0.000000 0.0
0.000000 0.000000 0.0
0.000000 0.000000 0.0
0.000000 0.000000 0.0
0.000000 0.000000 0.0
0.000000 0.000000 0.0
0.000000 0.000000 0.0
0.008551 0.074112 0.0
0.015977 0.071459 0.0
0.023268 0.070966 0.0
0.030424 0.071305 0.0
0.037454 0.071954 0.0
0.044360 0.072774 0.0
0.051138 0.073746 0.0
0.057773 0.074894 0.0
0.064243 0.076255 0.0
0.070520 0.077886 0.0
0.076562 0.079866 0.0
0.082314 0.082314 0.0
0.087696 0.085429 0.0
0.092585 0.089576 0.0
0.096760 0.095578 0.0
0.099789 0.104821 0.0
0.100804 0.118080 0.0
0.097830 0.132025 0.0
0.085715 0.133127 0.0
0.056433 0.097630 0.0
0.016981 0.031213 0.0
0.000744 0.001402 0.0
0.000001 0.000001 0.0
0.000000 0.000000 0.0
0.000000 0.000000 0.0
0.000000 0.000000 0.0
0.000000 0.000000 0.0
0.000000 0.000000 0.0
0.000000 0.000000 0.0
0.000000 0.000000 0.0
0.008974 0.078746 0.0
0.016659 0.076033 0.0
0.024218 0.075451 0.0
0.031638 0.075794 0.0
0.038926 0.076492 0.0
0.046083 0.077384 0.0
0.053105 0.078443 0.0
0.059979 0.079691 0.0
0.066683 0.081167 0.0
0.073189 0.082931 0.0
0.079456 0.085065 0.0
0.085429 0.087696 0.0
0.091031 0.091031 0.0
0.096141 0.095448 0.0
0.100553 0.101791 0.0
0.103854 0.111515 0.0
0.105220 0.125542 0.0
0.102832 0.140809 0.0
0.092160 0.144627 0.0
0.065921 0.114738 0.0
0.026438 0.048836 0.0
0.002305 0.004365 0.0
0.000008 0.000015 0.0
0.000000 0.000000 0.0
0.000000 0.000000 0.0
0.000000 0.000000 0.0
0.000000 0.000000 0.0
0.000000 0.000000 0.0
0.000000 0.000000 0.0
0.000000 0.000000 0.0
0.009549 0.082806 0.0
0.017582 0.080101 0.0
0.025505 0.079403 0.0
0.033287 0.079735 0.0
0.040924 0.080483 0.0
0.048420 0.081453 0.0
0.055768 0.082607 0.0
0.062958 0.083963 0.0
0.069969 0.085562 0.0
0.076771 0.087467 0.0
0.083325 0.089764 0.0
0.089576 0.092585 0.0
0.095448 0.096141 0.0
0.100823 0.100823 0.0
0.105505 0.107487 0.0
0.109105 0.117638 0.0
0.110838 0.132362 0.0
0.109044 0.148926 0.0
0.099826 0.155594 0.0
0.076922 0.132089 0.0
0.040174 0.072580 0.0
0.007401 0.013640 0.0
0.000115 0.000214 0.0
0.000000 0.000000 0.0
0.000000 0.000000 0.0
0.000000 0.000000 0.0
0.000000 0.000000 0.0
0.000000 0.000000 0.0
0.000000 0.000000 0.0
0.000000 0.000000 0.0
0.010403 0.085998 0.0
0.018950 0.083408 0.0
0.027417 0.082552 0.0
0.035737 0.082850 0.0
0.043896 0.083644 0.0
0.051890 0.084701 0.0
0.059715 0.085966 0.0
0.067360 0.087448 0.0
0.074804 0.089190 0.0
0.082018 0.091255 0.0
0.088961 0.093733 0.0
0.095578 0.096760 0.0
0.101791 0.100553 0.0
0.107487 0.105505 0.0
0.112475 0.112475 0.0
0.116385 0.123004 0.0
0.118467 0.138353 0.0
0.117218 0.156192 0.0
0.109382 0.165793 0.0
0.089936 0.148931 0.0
0.058440 0.099424 0.0
0.023433 0.039284 0.0
0.002185 0.003621 0.0
0.000008 0.000014 0.0
0.000000 0.000000 0.0
0.000000 0.000000 0.0
0.000000 0.000000 0.0
0.000000 0.000000 0.0
0.000000 0.000000 0.0
0.000000 0.000000 0.0
0.011721 0.087808 0.0
0.021044 0.085504 0.0
0.030349 0.084406 0.0
0.039517 0.084607 0.0
0.048499 0.085430 0.0
0.057280 0.086587 0.0
0.065853 0.087988 0.0
0.074205 0.089631 0.0
0.082315 0.091553 0.0
0.090152 0.093817 0.0
0.097673 0.096517 0.0
0.104821 0.099789 0.0
0.111515 0.103854 0.0
0.117638 0.109105 0.0
0.123004 0.116385 0.0
0.127252 0.127252 0.0
0.129652 0.143163 0.0
0.128832 0.162283 0.0
0.122160 0.174934 0.0
0.105872 0.164781 0.0
0.079730 0.125737 0.0
0.049567 0.074344 0.0
0.018324 0.026103 0.0
0.001259 0.001755 0.0
0.000003 0.000004 0.0
0.000000 0.000000 0.0
0.000000 0.000000 0.0
0.000000 0.000000 0.0
0.000000 0.000000 0.0
0.000000 0.000000 0.0
0.013517 0.087526 0.0
0.023837 0.085650 0.0
0.034264 0.084109 0.0
0.044607 0.084052 0.0
0.054763 0.084829 0.0
0.064688 0.086073 0.0
0.074363 0.087640 0.0
0.083770 0.089496 0.0
0.092886 0.091665 0.0
0.101677 0.094204 0.0
0.110096 0.097205 0.0
0.118080 0.100804 0.0
0.125542 0.105220 0.0
0.132362 0.110838 0.0
0.138353 0.118467 0.0
0.143163 0.129652 0.0
0.146060 0.146060 0.0
0.145725 0.166494 0.0
0.140007 0.182434 0.0
0.126215 0.179197 0.0
0.104275 0.150493 0.0
0.078224 0.108010 0.0
0.049172 0.063585 0.0
0.015592 0.019400 0.0
0.000706 0.000866 0.0
0.000001 0.000001 0.0
0.000000 0.000000 0.0
0.000000 0.000000 0.0
0.000000 0.000000 0.0
0.000000 0.000000 0.0
0.015198 0.083992 0.0
0.026201 0.082090 0.0
0.037419 0.079490 0.0
0.048687 0.078742 0.0
0.059874 0.079266 0.0
0.070916 0.080555 0.0
0.081779 0.082349 0.0
0.092432 0.084547 0.0
0.102838 0.087135 0.0
0.112950 0.090149 0.0
0.122705 0.093671 0.0
0.132025 0.097830 0.0
0.140809 0.102832 0.0
0.148926 0.109044 0.0
0.156192 0.117218 0.0
0.162283 0.128832 0.0
0.166494 0.145725 0.0
0.167472 0.167472 0.0
0.163206 0.186966 0.0
0.151609 0.191049 0.0
0.132697 0.172763 0.0
0.109426 0.139413 0.0
0.082675 0.100343 0.0
0.047168 0.054873 0.0
0.009565 0.010920 0.0
0.000168 0.000190 0.0
0.000000 0.000000 0.0
0.000000 0.000000 0.0
0.000000 0.000000 0.0
0.000000 0.000000 0.0
0.014904 0.072770 0.0
0.024254 0.067876 0.0
0.033350 0.062335 0.0
0.042789 0.060086 0.0
0.052770 0.060237 0.0
0.063301 0.061817 0.0
0.074318 0.064290 0.0
0.085736 0.067410 0.0
0.097457 0.071089 0.0
0.109361 0.075323 0.0
0.121308 0.080163 0.0
0.133127 0.085715 0.0
0.144627 0.092160 0.0
0.155594 0.099826 0.0
0.165793 0.109382 0.0
0.174934 0.122160 0.0
0.182434 0.140007 0.0
0.186966 0.163206 0.0
0.186336 0.186336 0.0
0.178343 0.197964 0.0
0.162776 0.190332 0.0
0.141976 0.166770 0.0
0.117105 0.134244 0.0
0.082743 0.091986 0.0
0.032664 0.035624 0.0
0.002429 0.002631 0.0
0.000006 0.000006 0.0
0.000000 0.000000 0.0
0.000000 0.000000 0.0
0.000000 0.000000 0.0
0.009220 0.042103 0.0
0.012006 0.031273 0.0
0.014035 0.024038 0.0
0.017059 0.021753 0.0
0.021429 0.022122 0.0
0.027206 0.023963 0.0
0.034491 0.026847 0.0
0.043444 0.030669 0.0
0.054230 0.035459 0.0
0.066942 0.041293 0.0
0.081511 0.048257 0.0
0.097630 0.056433 0.0
0.114738 0.065921 0.0
0.132089 0.076922 0.0
0.148931 0.089936 0.0
0.164781 0.105872 0.0
0.179197 0.126215 0.0
0.191049 0.151609 0.0
0.197964 0.178343 0.0
0.197161 0.197161 0.0
0.187695 0.200069 0.0
0.171263 0.187071 0.0
0.149303 0.162538 0.0
0.116858 0.125222 0.0
0.060465 0.063904 0.0
0.008620 0.009055 0.0
0.000076 0.000079 0.0
0.000000 0.000000 0.0
0.000000 0.000000 0.0
0.000000 0.000000 0.0
0.001619 0.007195 0.0
0.001199 0.003005 0.0
0.000963 0.001578 0.0
0.001047 0.001277 0.0
0.001381 0.001362 0.0
0.002001 0.001682 0.0
0.003037 0.002252 0.0
0.004735 0.003178 0.0
0.007515 0.004660 0.0
0.012069 0.007039 0.0
0.019471 0.010870 0.0
0.031213 0.016981 0.0
0.048836 0.026438 0.0
0.072580 0.040174 0.0
0.099424 0.058440 0.0
0.125737 0.079730 0.0
0.150493 0.104275 0.0
0.172763 0.132697 0.0
0.190332 0.162776 0.0
0.200069 0.187695 0.0
0.200135 0.200135 0.0
0.191260 0.197814 0.0
0.174633 0.182420 0.0
0.144906 0.150772 0.0
0.081798 0.084507 0.0
0.013603 0.013998 0.0
0.000163 0.000167 0.0
0.000000 0.000000 0.0
0.000000 0.000000 0.0
0.000000 0.000000 0.0
0.000021 0.000092 0.0
0.000005 0.000012 0.0
0.000002 0.000003 0.0
0.000002 0.000002 0.0
0.000002 0.000002 0.0
0.000005 0.000004 0.0
0.000010 0.000007 0.0
0.000023 0.000015 0.0
0.000059 0.000036 0.0
0.000162 0.000092 0.0
0.000465 0.000253 0.0
0.001402 0.000744 0.0
0.004365 0.002305 0.0
0.013640 0.007401 0.0
0.039284 0.023433 0.0
0.074344 0.049567 0.0
0.108010 0.078224 0.0
0.139413 0.109426 0.0
0.166770 0.141976 0.0
0.187071 0.171263 0.0
0.197814 0.191260 0.0
0.198502 0.198502 0.0
0.189115 0.192068 0.0
0.160864 0.163888 0.0
0.083835 0.085246 0.0
0.010187 0.010340 0.0
0.000064 0.000065 0.0
0.000000 0.000000 0.0
0.000000 0.000000 0.0
0.000000 0.000000 0.0
0.000000 0.000000 0.0
0.000000 0.000000 0.0
0.000000 0.000000 0.0
0.000000 0.000000 0.0
0.000000 0.000000 0.0
0.000000 0.000000 0.0
0.000000 0.000000 0.0
0.000000 0.000000 0.0
0.000000 0.000000 0.0
0.000000 0.000000 0.0
0.000000 0.000000 0.0
0.000001 0.000001 0.0
0.000015 0.000008 0.0
0.000214 0.000115 0.0
0.003621 0.002185 0.0
0.026103 0.018324 0.0
0.063585 0.049172 0.0
0.100343 0.082675 0.0
0.134244 0.117105 0.0
0.162538 0.149303 0.0
0.182420 0.174633 0.0
0.192068 0.189115 0.0
0.188243 0.188243 0.0
0.150191 0.151080 0.0
0.050700 0.051042 0.0
0.002114 0.002127 0.0
0.000002 0.000002 0.0
0.000000 0.000000 0.0
0.000000 0.000000 0.0
0.000000 0.000000 0.0
0.000000 0.000000 0.0
0.000000 0.000000 0.0
0.000000 0.000000 0.0
0.000000 0.000000 0.0
0.000000 0.000000 0.0
0.000000 0.000000 0.0
0.000000 0.000000 0.0
0.000000 0.000000 0.0
0.000000 0.000000 0.0
0.000000 0.000000 0.0
0.000000 0.000000 0.0
0.000000 0.000000 0.0
0.000000 0.000000 0.0
0.000000 0.000000 0.0
0.000014 0.000008 0.0
0.001755 0.001259 0.0
0.019400 0.015592 0.0
0.054873 0.047168 0.0
0.091986 0.082743 0.0
0.125222 0.116858 0.0
0.150772 0.144906 0.0
0.163888 0.160864 0.0
0.151080 0.150191 0.0
0.078903 0.078903 0.0
0.007410 0.007422 0.0
0.000022 0.000022 0.0
0.000000 0.000000 0.0
0.000000 0.000000 0.0
0.000000 0.000000 0.0
0.000000 0.000000 0.0
0.000000 0.000000 0.0
0.000000 0.000000 0.0
0.000000 0.000000 0.0
0.000000 0.000000 0.0
0.000000 0.000000 0.0
0.000000 0.000000 0.0
0.000000 0.000000 0.0
0.000000 0.000000 0.0
0.000000 0.000000 0.0
0.000000 0.000000 0.0
0.000000 0.000000 0.0
0.000000 0.000000 0.0
0.000000 0.000000 0.0
0.000000 0.000000 0.0
0.000000 0.000000 0.0
0.000004 0.000003 0.0
0.000866 0.000706 0.0
0.010920 0.009565 0.0
0.035624 0.032664 0.0
0.063904 0.060465 0.0
0.084507 0.081798 0.0
0.085246 0.083835 0.0
0.051042 0.050700 0.0
0.007422 0.007410 0.0
0.000041 0.000041 0.0
0.000000 0.000000 0.0
0.000000 0.000000 0.0
0.000000 0.000000 0.0
0.000000 0.000000 0.0
0.000000 0.000000 0.0
0.000000 0.000000 0.0
0.000000 0.000000 0.0
0.000000 0.000000 0.0
0.000000 0.000000 0.0
0.000000 0.000000 0.0
0.000000 0.000000 0.0
0.000000 0.000000 0.0
0.000000 0.000000 0.0
0.000000 0.000000 0.0
0.000000 0.000000 0.0
0.000000 0.000000 0.0
0.000000 0.000000 0.0
0.000000 0.000000 0.0
0.000000 0.000000 0.0
0.000000 0.000000 0.0
0.000000 0.000000 0.0
0.000001 0.000001 0.0
0.000190 0.000168 0.0
0.002631 0.002429 0.0
0.009055 0.008620 0.0
0.013998 0.013603 0.0
0.010340 0.010187 0.0
0.002127 0.002114 0.0
0.000022 0.000022 0.0
0.000000 0.000000 0.0
0.000000 0.000000 0.0
0.000000 0.000000 0.0
0.000000 0.000000 0.0
0.000000 0.000000 0.0
0.000000 0.000000 0.0
0.000000 0.000000 0.0
0.000000 0.000000 0.0
0.000000 0.000000 0.0
0.000000 0.000000 0.0
0.000000 0.000000 0.0
0.000000 0.000000 0.0
0.000000 0.000000 0.0
0.000000 0.000000 0.0
0.000000 0.000000 0.0
0.000000 0.000000 0.0
0.000000 0.000000 0.0
0.000000 0.000000 0.0
0.000000 0.000000 0.0
0.000000 0.000000 0.0
0.000000 0.000000 0.0
0.000000 0.000000 0.0
0.000000 0.000000 0.0
0.000000 0.000000 0.0
0.000006 0.000006 0.0
0.000079 0.000076 0.0
0.000167 0.000163 0.0
0.000065 0.000064 0.0
0.000002 0.000002 0.0
0.000000 0.000000 0.0
0.000000 0.000000 0.0
0.000000 0.000000 0.0
0.000000 0.000000 0.0
0.000000 0.000000 0.0
0.000000 0.000000 0.0
0.000000 0.000000 0.0
0.000000 0.000000 0.0
0.000000 0.000000 0.0
0.000000 0.000000 0.0
0.000000 0.000000 0.0
0.000000 0.000000 0.0
0.000000 0.000000 0.0
0.000000 0.000000 0.0
0.000000 0.000000 0.0
0.000000 0.000000 0.0
0.000000 0.000000 0.0
0.000000 0.000000 0.0
0.000000 0.000000 0.0
0.000000 0.000000 0.0
0.000000 0.000000 0.0
0.000000 0.000000 0.0
0.000000 0.000000 0.0
0.000000 0.000000 0.0
0.000000 0.000000 0.0
0.000000 0.000000 0.0
0.000000 0.000000 0.0
0.000000 0.000000 0.0
0.000000 0.000000 0.0
0.000000 0.000000 0.0
0.000000 0.000000 0.0
0.000000 0.000000 0.0
0.000000 0.000000 0.0
0.000000 0.000000 0.0
0.000000 0.000000 0.0
0.000000 0.000000 0.0
0.000000 0.000000 0.0
0.000000 0.000000 0.0
0.000000 0.000000 0.0
0.000000 0.000000 0.0
0.000000 0.000000 0.0
0.000000 0.000000 0.0
0.000000 0.000000 0.0
0.000000 0.000000 0.0
0.000000 0.000000 0.0
0.000000 0.000000 0.0
0.000000 0.000000 0.0
0.000000 0.000000 0.0
0.000000 0.000000 0.0
0.000000 0.000000 0.0
0.000000 0.000000 0.0
0.000000 0.000000 0.0
0.000000 0.000000 0.0
0.000000 0.000000 0.0
0.000000 0.000000 0.0
0.000000 0.000000 0.0
0.000000 0.000000 0.0
0.000000 0.000000 0.0
0.000000 0.000000 0.0
0.000000 0.000000 0.0
0.000000 0.000000 0.0
0.000000 0.000000 0.0
0.000000 0.000000 0.0
0.000000 0.000000 0.0
0.000000 0.000000 0.0
0.000000 0.000000 0.0
0.000000 0.000000 0.0
0.000000 0.000000 0.0
0.000000 0.000000 0.0
0.000000 0.000000 0.0
0.000000 0.000000 0.0
0.000000 0.000000 0.0
0.000000 0.000000 0.0
0.000000 0.000000 0.0
0.000000 0.000000 0.0
0.000000 0.000000 0.0
0.000000 0.000000 0.0
0.000000 0.000000 0.0
0.000000 0.000000 0.0
0.000000 0.000000 0.0
0.000000 0.000000 0.0
0.000000 0.000000 0.0
0.000000 0.000000 0.0
0.000000 0.000000 0.0
0.000000 0.000000 0.0
0.000000 0.000000 0.0
0.000000 0.000000 0.0
0.000000 0.000000 0.0
0.000000 0.000000 0.0
0.000000 0.000000 0.0
0.000000 0.000000 0.0
0.000000 0.000000 0.0
0.000000 0.000000 0.0
0.000000 0.000000 0.0
0.000000 0.000000 0.0
0.000000 0.000000 0.0
0.000000 0.000000 0.0
</DataArray>
   </CellData>
  </Piece>
 </UnstructuredGrid>
</VTKFile>
