<VTKFile type="UnstructuredGrid" version="0.1" byte_order="LittleEndian">
 <UnstructuredGrid>
  <Piece NumberOfPoints="961" NumberOfCells="900">
   <Points>
    <DataArray name="Position" type="Float32" NumberOfComponents="3" format="ascii">
    0.000000 0.000000 0.0
    0.066667 0.000000 0.0
    0.133333 0.000000 0.0
    0.200000 0.000000 0.0
    0.266667 0.000000 0.0
    0.333333 0.000000 0.0
    0.400000 0.000000 0.0
    0.466667 0.000000 0.0
    0.533333 0.000000 0.0
    0.600000 0.000000 0.0
    0.666667 0.000000 0.0
    0.733333 0.000000 0.0
    0.800000 0.000000 0.0
    0.866667 0.000000 0.0
    0.933333 0.000000 0.0
    1.000000 0.000000 0.0
    1.066667 0.000000 0.0
    1.133333 0.000000 0.0
    1.200000 0.000000 0.0
    1.266667 0.000000 0.0
    1.333333 0.000000 0.0
    1.400000 0.000000 0.0
    1.466667 0.000000 0.0
    1.533333 0.000000 0.0
    1.600000 0.000000 0.0
    1.666667 0.000000 0.0
    1.733333 0.000000 0.0
    1.800000 0.000000 0.0
    1.866667 0.000000 0.0
    1.933333 0.000000 0.0
    2.000000 0.000000 0.0
    0.000000 0.066667 0.0
    0.066667 0.066667 0.0
    0.133333 0.066667 0.0
    0.200000 0.066667 0.0
    0.266667 0.066667 0.0
    0.333333 0.066667 0.0
    0.400000 0.066667 0.0
    0.466667 0.066667 0.0
    0.533333 0.066667 0.0
    0.600000 0.066667 0.0
    0.666667 0.066667 0.0
    0.733333 0.066667 0.0
    0.800000 0.066667 0.0
    0.866667 0.066667 0.0
    0.933333 0.066667 0.0
    1.000000 0.066667 0.0
    1.066667 0.066667 0.0
    1.133333 0.066667 0.0
    1.200000 0.066667 0.0
    1.266667 0.066667 0.0
    1.333333 0.066667 0.0
    1.400000 0.066667 0.0
    1.466667 0.066667 0.0
    1.533333 0.066667 0.0
    1.600000 0.066667 0.0
    1.666667 0.066667 0.0
    1.733333 0.066667 0.0
    1.800000 0.066667 0.0
    1.866667 0.066667 0.0
    1.933333 0.066667 0.0
    2.000000 0.066667 0.0
    0.000000 0.133333 0.0
    0.066667 0.133333 0.0
    0.133333 0.133333 0.0
    0.200000 0.133333 0.0
    0.266667 0.133333 0.0
    0.333333 0.133333 0.0
    0.400000 0.133333 0.0
    0.466667 0.133333 0.0
    0.533333 0.133333 0.0
    0.600000 0.133333 0.0
    0.666667 0.133333 0.0
    0.733333 0.133333 0.0
    0.800000 0.133333 0.0
    0.866667 0.133333 0.0
    0.933333 0.133333 0.0
    1.000000 0.133333 0.0
    1.066667 0.133333 0.0
    1.133333 0.133333 0.0
    1.200000 0.133333 0.0
    1.266667 0.133333 0.0
    1.333333 0.133333 0.0
    1.400000 0.133333 0.0
    1.466667 0.133333 0.0
    1.533333 0.133333 0.0
    1.600000 0.133333 0.0
    1.666667 0.133333 0.0
    1.733333 0.133333 0.0
    1.800000 0.133333 0.0
    1.866667 0.133333 0.0
    1.933333 0.133333 0.0
    2.000000 0.133333 0.0
    0.000000 0.200000 0.0
    0.066667 0.200000 0.0
    0.133333 0.200000 0.0
    0.200000 0.200000 0.0
    0.266667 0.200000 0.0
    0.333333 0.200000 0.0
    0.400000 0.200000 0.0
    0.466667 0.200000 0.0
    0.533333 0.200000 0.0
    0.600000 0.200000 0.0
    0.666667 0.200000 0.0
    0.733333 0.200000 0.0
    0.800000 0.200000 0.0
    0.866667 0.200000 0.0
    0.933333 0.200000 0.0
    1.000000 0.200000 0.0
    1.066667 0.200000 0.0
    1.133333 0.200000 0.0
    1.200000 0.200000 0.0
    1.266667 0.200000 0.0
    1.333333 0.200000 0.0
    1.400000 0.200000 0.0
    1.466667 0.200000 0.0
    1.533333 0.200000 0.0
    1.600000 0.200000 0.0
    1.666667 0.200000 0.0
    1.733333 0.200000 0.0
    1.800000 0.200000 0.0
    1.866667 0.200000 0.0
    1.933333 0.200000 0.0
    2.000000 0.200000 0.0
    0.000000 0.266667 0.0
    0.066667 0.266667 0.0
    0.133333 0.266667 0.0
    0.200000 0.266667 0.0
    0.266667 0.266667 0.0
    0.333333 0.266667 0.0
    0.400000 0.266667 0.0
    0.466667 0.266667 0.0
    0.533333 0.266667 0.0
    0.600000 0.266667 0.0
    0.666667 0.266667 0.0
    0.733333 0.266667 0.0
    0.800000 0.266667 0.0
    0.866667 0.266667 0.0
    0.933333 0.266667 0.0
    1.000000 0.266667 0.0
    1.066667 0.266667 0.0
    1.133333 0.266667 0.0
    1.200000 0.266667 0.0
    1.266667 0.266667 0.0
    1.333333 0.266667 0.0
    1.400000 0.266667 0.0
    1.466667 0.266667 0.0
    1.533333 0.266667 0.0
    1.600000 0.266667 0.0
    1.666667 0.266667 0.0
    1.733333 0.266667 0.0
    1.800000 0.266667 0.0
    1.866667 0.266667 0.0
    1.933333 0.266667 0.0
    2.000000 0.266667 0.0
    0.000000 0.333333 0.0
    0.066667 0.333333 0.0
    0.133333 0.333333 0.0
    0.200000 0.333333 0.0
    0.266667 0.333333 0.0
    0.333333 0.333333 0.0
    0.400000 0.333333 0.0
    0.466667 0.333333 0.0
    0.533333 0.333333 0.0
    0.600000 0.333333 0.0
    0.666667 0.333333 0.0
    0.733333 0.333333 0.0
    0.800000 0.333333 0.0
    0.866667 0.333333 0.0
    0.933333 0.333333 0.0
    1.000000 0.333333 0.0
    1.066667 0.333333 0.0
    1.133333 0.333333 0.0
    1.200000 0.333333 0.0
    1.266667 0.333333 0.0
    1.333333 0.333333 0.0
    1.400000 0.333333 0.0
    1.466667 0.333333 0.0
    1.533333 0.333333 0.0
    1.600000 0.333333 0.0
    1.666667 0.333333 0.0
    1.733333 0.333333 0.0
    1.800000 0.333333 0.0
    1.866667 0.333333 0.0
    1.933333 0.333333 0.0
    2.000000 0.333333 0.0
    0.000000 0.400000 0.0
    0.066667 0.400000 0.0
    0.133333 0.400000 0.0
    0.200000 0.400000 0.0
    0.266667 0.400000 0.0
    0.333333 0.400000 0.0
    0.400000 0.400000 0.0
    0.466667 0.400000 0.0
    0.533333 0.400000 0.0
    0.600000 0.400000 0.0
    0.666667 0.400000 0.0
    0.733333 0.400000 0.0
    0.800000 0.400000 0.0
    0.866667 0.400000 0.0
    0.933333 0.400000 0.0
    1.000000 0.400000 0.0
    1.066667 0.400000 0.0
    1.133333 0.400000 0.0
    1.200000 0.400000 0.0
    1.266667 0.400000 0.0
    1.333333 0.400000 0.0
    1.400000 0.400000 0.0
    1.466667 0.400000 0.0
    1.533333 0.400000 0.0
    1.600000 0.400000 0.0
    1.666667 0.400000 0.0
    1.733333 0.400000 0.0
    1.800000 0.400000 0.0
    1.866667 0.400000 0.0
    1.933333 0.400000 0.0
    2.000000 0.400000 0.0
    0.000000 0.466667 0.0
    0.066667 0.466667 0.0
    0.133333 0.466667 0.0
    0.200000 0.466667 0.0
    0.266667 0.466667 0.0
    0.333333 0.466667 0.0
    0.400000 0.466667 0.0
    0.466667 0.466667 0.0
    0.533333 0.466667 0.0
    0.600000 0.466667 0.0
    0.666667 0.466667 0.0
    0.733333 0.466667 0.0
    0.800000 0.466667 0.0
    0.866667 0.466667 0.0
    0.933333 0.466667 0.0
    1.000000 0.466667 0.0
    1.066667 0.466667 0.0
    1.133333 0.466667 0.0
    1.200000 0.466667 0.0
    1.266667 0.466667 0.0
    1.333333 0.466667 0.0
    1.400000 0.466667 0.0
    1.466667 0.466667 0.0
    1.533333 0.466667 0.0
    1.600000 0.466667 0.0
    1.666667 0.466667 0.0
    1.733333 0.466667 0.0
    1.800000 0.466667 0.0
    1.866667 0.466667 0.0
    1.933333 0.466667 0.0
    2.000000 0.466667 0.0
    0.000000 0.533333 0.0
    0.066667 0.533333 0.0
    0.133333 0.533333 0.0
    0.200000 0.533333 0.0
    0.266667 0.533333 0.0
    0.333333 0.533333 0.0
    0.400000 0.533333 0.0
    0.466667 0.533333 0.0
    0.533333 0.533333 0.0
    0.600000 0.533333 0.0
    0.666667 0.533333 0.0
    0.733333 0.533333 0.0
    0.800000 0.533333 0.0
    0.866667 0.533333 0.0
    0.933333 0.533333 0.0
    1.000000 0.533333 0.0
    1.066667 0.533333 0.0
    1.133333 0.533333 0.0
    1.200000 0.533333 0.0
    1.266667 0.533333 0.0
    1.333333 0.533333 0.0
    1.400000 0.533333 0.0
    1.466667 0.533333 0.0
    1.533333 0.533333 0.0
    1.600000 0.533333 0.0
    1.666667 0.533333 0.0
    1.733333 0.533333 0.0
    1.800000 0.533333 0.0
    1.866667 0.533333 0.0
    1.933333 0.533333 0.0
    2.000000 0.533333 0.0
    0.000000 0.600000 0.0
    0.066667 0.600000 0.0
    0.133333 0.600000 0.0
    0.200000 0.600000 0.0
    0.266667 0.600000 0.0
    0.333333 0.600000 0.0
    0.400000 0.600000 0.0
    0.466667 0.600000 0.0
    0.533333 0.600000 0.0
    0.600000 0.600000 0.0
    0.666667 0.600000 0.0
    0.733333 0.600000 0.0
    0.800000 0.600000 0.0
    0.866667 0.600000 0.0
    0.933333 0.600000 0.0
    1.000000 0.600000 0.0
    1.066667 0.600000 0.0
    1.133333 0.600000 0.0
    1.200000 0.600000 0.0
    1.266667 0.600000 0.0
    1.333333 0.600000 0.0
    1.400000 0.600000 0.0
    1.466667 0.600000 0.0
    1.533333 0.600000 0.0
    1.600000 0.600000 0.0
    1.666667 0.600000 0.0
    1.733333 0.600000 0.0
    1.800000 0.600000 0.0
    1.866667 0.600000 0.0
    1.933333 0.600000 0.0
    2.000000 0.600000 0.0
    0.000000 0.666667 0.0
    0.066667 0.666667 0.0
    0.133333 0.666667 0.0
    0.200000 0.666667 0.0
    0.266667 0.666667 0.0
    0.333333 0.666667 0.0
    0.400000 0.666667 0.0
    0.466667 0.666667 0.0
    0.533333 0.666667 0.0
    0.600000 0.666667 0.0
    0.666667 0.666667 0.0
    0.733333 0.666667 0.0
    0.800000 0.666667 0.0
    0.866667 0.666667 0.0
    0.933333 0.666667 0.0
    1.000000 0.666667 0.0
    1.066667 0.666667 0.0
    1.133333 0.666667 0.0
    1.200000 0.666667 0.0
    1.266667 0.666667 0.0
    1.333333 0.666667 0.0
    1.400000 0.666667 0.0
    1.466667 0.666667 0.0
    1.533333 0.666667 0.0
    1.600000 0.666667 0.0
    1.666667 0.666667 0.0
    1.733333 0.666667 0.0
    1.800000 0.666667 0.0
    1.866667 0.666667 0.0
    1.933333 0.666667 0.0
    2.000000 0.666667 0.0
    0.000000 0.733333 0.0
    0.066667 0.733333 0.0
    0.133333 0.733333 0.0
    0.200000 0.733333 0.0
    0.266667 0.733333 0.0
    0.333333 0.733333 0.0
    0.400000 0.733333 0.0
    0.466667 0.733333 0.0
    0.533333 0.733333 0.0
    0.600000 0.733333 0.0
    0.666667 0.733333 0.0
    0.733333 0.733333 0.0
    0.800000 0.733333 0.0
    0.866667 0.733333 0.0
    0.933333 0.733333 0.0
    1.000000 0.733333 0.0
    1.066667 0.733333 0.0
    1.133333 0.733333 0.0
    1.200000 0.733333 0.0
    1.266667 0.733333 0.0
    1.333333 0.733333 0.0
    1.400000 0.733333 0.0
    1.466667 0.733333 0.0
    1.533333 0.733333 0.0
    1.600000 0.733333 0.0
    1.666667 0.733333 0.0
    1.733333 0.733333 0.0
    1.800000 0.733333 0.0
    1.866667 0.733333 0.0
    1.933333 0.733333 0.0
    2.000000 0.733333 0.0
    0.000000 0.800000 0.0
    0.066667 0.800000 0.0
    0.133333 0.800000 0.0
[...]
   <CellData Vectors="vectors">
<DataArray type="Float32" Name="cellCenteredVelocity" NumberOfComponents="3" format="ascii">
0.007513 0.007513 0.0
0.014213 0.007120 0.0
0.020761 0.007043 0.0
0.027181 0.007075 0.0
0.033486 0.007149 0.0
0.039676 0.007247 0.0
0.045742 0.007366 0.0
0.051668 0.007509 0.0
0.057427 0.007681 0.0
0.062987 0.007890 0.0
0.068302 0.008147 0.0
0.073306 0.008468 0.0
0.077905 0.008883 0.0
0.081946 0.009445 0.0
0.085145 0.010278 0.0
0.087007 0.011560 0.0
0.086848 0.013318 0.0
0.083581 0.015004 0.0
0.073137 0.014878 0.0
0.043944 0.009577 0.0
0.008262 0.001851 0.0
0.000128 0.000029 0.0
0.000000 0.000000 0.0
0.000000 0.000000 0.0
0.000000 0.000000 0.0
0.000000 0.000000 0.0
0.000000 0.000000 0.0
0.000000 0.000000 0.0
0.000000 0.000000 0.0
0.000000 0.000000 0.0
0.007120 0.014213 0.0
0.013567 0.013567 0.0
0.019858 0.013475 0.0
0.026033 0.013543 0.0
0.032105 0.013670 0.0
0.038076 0.013831 0.0
0.043937 0.014025 0.0
0.049671 0.014256 0.0
0.055255 0.014535 0.0
0.060660 0.014872 0.0
0.065844 0.015285 0.0
0.070752 0.015802 0.0
0.075299 0.016468 0.0
0.079355 0.017369 0.0
0.082677 0.018700 0.0
0.084832 0.020733 0.0
0.085118 0.023465 0.0
0.081909 0.025862 0.0
0.068767 0.024318 0.0
0.033449 0.012723 0.0
0.003631 0.001437 0.0
0.000019 0.000008 0.0
0.000000 0.000000 0.0
0.000000 0.000000 0.0
0.000000 0.000000 0.0
0.000000 0.000000 0.0
0.000000 0.000000 0.0
0.000000 0.000000 0.0
0.000000 0.000000 0.0
0.000000 0.000000 0.0
0.007043 0.020761 0.0
0.013475 0.019858 0.0
0.019747 0.019747 0.0
0.025898 0.019852 0.0
0.031944 0.020032 0.0
0.037886 0.020258 0.0
0.043713 0.020529 0.0
0.049409 0.020852 0.0
0.054950 0.021239 0.0
0.060305 0.021708 0.0
0.065430 0.022283 0.0
0.070267 0.023002 0.0
0.074727 0.023930 0.0
0.078672 0.025186 0.0
0.081841 0.027043 0.0
0.083765 0.029890 0.0
0.083632 0.033715 0.0
0.079430 0.036934 0.0
0.063483 0.033543 0.0
0.026058 0.015044 0.0
0.001953 0.001180 0.0
0.000005 0.000003 0.0
0.000000 0.000000 0.0
0.000000 0.000000 0.0
0.000000 0.000000 0.0
0.000000 0.000000 0.0
0.000000 0.000000 0.0
0.000000 0.000000 0.0
0.000000 0.000000 0.0
0.000000 0.000000 0.0
0.007075 0.027181 0.0
0.013543 0.026033 0.0
0.019852 0.025898 0.0
0.026037 0.026037 0.0
0.032116 0.026271 0.0
0.038088 0.026561 0.0
0.043943 0.026908 0.0
0.049666 0.027322 0.0
0.055231 0.027817 0.0
0.060607 0.028416 0.0
0.065749 0.029151 0.0
0.070598 0.030071 0.0
0.075062 0.031257 0.0
0.078996 0.032864 0.0
0.082132 0.035245 0.0
0.083964 0.038912 0.0
0.083584 0.043884 0.0
0.078726 0.048053 0.0
0.061295 0.043076 0.0
0.023632 0.018321 0.0
0.001584 0.001287 0.0
0.000003 0.000003 0.0
0.000000 0.000000 0.0
0.000000 0.000000 0.0
0.000000 0.000000 0.0
0.000000 0.000000 0.0
0.000000 0.000000 0.0
0.000000 0.000000 0.0
0.000000 0.000000 0.0
0.000000 0.000000 0.0
0.007149 0.033486 0.0
0.013670 0.032105 0.0
0.020032 0.031944 0.0
0.026271 0.032116 0.0
0.032401 0.032401 0.0
0.038424 0.032756 0.0
0.044331 0.033178 0.0
0.050103 0.033680 0.0
0.055719 0.034282 0.0
0.061144 0.035009 0.0
0.066337 0.035901 0.0
0.071234 0.037016 0.0
0.075747 0.038453 0.0
0.079730 0.040401 0.0
0.082911 0.043288 0.0
0.084772 0.047752 0.0
0.084349 0.053868 0.0
0.079247 0.059083 0.0
0.061418 0.053093 0.0
0.023958 0.022947 0.0
0.001679 0.001685 0.0
0.000004 0.000004 0.0
0.000000 0.000000 0.0
0.000000 0.000000 0.0
0.000000 0.000000 0.0
0.000000 0.000000 0.0
0.000000 0.000000 0.0
0.000000 0.000000 0.0
0.000000 0.000000 0.0
0.000000 0.000000 0.0
0.007247 0.039676 0.0
0.013831 0.038076 0.0
0.020258 0.037886 0.0
0.026561 0.038088 0.0
0.032756 0.038424 0.0
0.038842 0.038842 0.0
0.044811 0.039338 0.0
0.050647 0.039929 0.0
0.056326 0.040635 0.0
0.061816 0.041489 0.0
0.067074 0.042534 0.0
0.072039 0.043840 0.0
0.076623 0.045522 0.0
0.080682 0.047799 0.0
0.083949 0.051170 0.0
0.085906 0.056397 0.0
0.085570 0.063626 0.0
0.080508 0.069961 0.0
0.062932 0.063596 0.0
0.025813 0.028983 0.0
0.002050 0.002416 0.0
0.000006 0.000007 0.0
0.000000 0.000000 0.0
0.000000 0.000000 0.0
0.000000 0.000000 0.0
0.000000 0.000000 0.0
0.000000 0.000000 0.0
0.000000 0.000000 0.0
0.000000 0.000000 0.0
0.000000 0.000000 0.0
0.007366 0.045742 0.0
0.014025 0.043937 0.0
0.020529 0.043713 0.0
0.026908 0.043943 0.0
0.033178 0.044331 0.0
0.039338 0.044811 0.0
0.045382 0.045382 0.0
0.051292 0.046060 0.0
0.057046 0.046870 0.0
0.062612 0.047848 0.0
0.067948 0.049044 0.0
0.072994 0.050538 0.0
0.077662 0.052458 0.0
0.081814 0.055053 0.0
0.085189 0.058887 0.0
0.087279 0.064838 0.0
0.087105 0.073138 0.0
0.082258 0.080653 0.0
0.065316 0.074528 0.0
0.028731 0.036511 0.0
0.002709 0.003619 0.0
0.000011 0.000015 0.0
0.000000 0.000000 0.0
0.000000 0.000000 0.0
0.000000 0.000000 0.0
0.000000 0.000000 0.0
0.000000 0.000000 0.0
0.000000 0.000000 0.0
0.000000 0.000000 0.0
0.000000 0.000000 0.0
0.007509 0.051668 0.0
0.014256 0.049671 0.0
0.020852 0.049409 0.0
0.027322 0.049666 0.0
0.033680 0.050103 0.0
0.039929 0.050647 0.0
0.046060 0.051292 0.0
0.052058 0.052058 0.0
0.057899 0.052971 0.0
0.063554 0.054073 0.0
0.068980 0.055419 0.0
0.074119 0.057096 0.0
0.078885 0.059249 0.0
0.083143 0.062152 0.0
0.086642 0.066427 0.0
0.088889 0.073063 0.0
0.088921 0.082389 0.0
0.084400 0.091130 0.0
0.068329 0.085805 0.0
0.032580 0.045658 0.0
0.003764 0.005559 0.0
0.000022 0.000034 0.0
0.000000 0.000000 0.0
0.000000 0.000000 0.0
0.000000 0.000000 0.0
0.000000 0.000000 0.0
0.000000 0.000000 0.0
0.000000 0.000000 0.0
0.000000 0.000000 0.0
0.000000 0.000000 0.0
0.007681 0.057427 0.0
0.014535 0.055255 0.0
0.021239 0.054950 0.0
0.027817 0.055231 0.0
0.034282 0.055719 0.0
0.040635 0.056326 0.0
0.046870 0.057046 0.0
0.052971 0.057899 0.0
0.058917 0.058917 0.0
0.064675 0.060141 0.0
0.070207 0.061635 0.0
0.075453 0.063493 0.0
0.080332 0.065875 0.0
0.084710 0.069076 0.0
0.088348 0.073772 0.0
0.090770 0.081053 0.0
0.091042 0.091354 0.0
0.086919 0.101356 0.0
0.071883 0.097333 0.0
0.037365 0.056549 0.0
0.005425 0.008677 0.0
0.000051 0.000084 0.0
0.000000 0.000000 0.0
0.000000 0.000000 0.0
0.000000 0.000000 0.0
0.000000 0.000000 0.0
0.000000 0.000000 0.0
0.000000 0.000000 0.0
0.000000 0.000000 0.0
0.000000 0.000000 0.0
0.007890 0.062987 0.0
0.014872 0.060660 0.0
0.021708 0.060305 0.0
0.028416 0.060607 0.0
0.035009 0.061144 0.0
0.041489 0.061816 0.0
0.047848 0.062612 0.0
0.054073 0.063554 0.0
0.060141 0.064675 0.0
0.066023 0.066023 0.0
0.071678 0.067664 0.0
0.077050 0.069702 0.0
0.082058 0.072307 0.0
0.086575 0.075797 0.0
0.090369 0.080893 0.0
0.092985 0.088777 0.0
0.093522 0.100002 0.0
0.089852 0.111286 0.0
0.075972 0.109000 0.0
0.043143 0.069233 0.0
0.008040 0.013675 0.0
0.000126 0.000220 0.0
0.000000 0.000000 0.0
0.000000 0.000000 0.0
0.000000 0.000000 0.0
0.000000 0.000000 0.0
0.000000 0.000000 0.0
0.000000 0.000000 0.0
0.000000 0.000000 0.0
0.000000 0.000000 0.0
0.008147 0.068302 0.0
0.015285 0.065844 0.0
0.022283 0.065430 0.0
0.029151 0.065749 0.0
0.035901 0.066337 0.0
0.042534 0.067074 0.0
0.049044 0.067948 0.0
0.055419 0.068980 0.0
0.061635 0.070207 0.0
0.067664 0.071678 0.0
0.073466 0.073466 0.0
0.078987 0.075682 0.0
0.084147 0.078506 0.0
0.088822 0.082276 0.0
0.092792 0.087750 0.0
0.095624 0.096194 0.0
0.096452 0.108287 0.0
0.093278 0.120862 0.0
0.080646 0.120671 0.0
0.049981 0.083608 0.0
0.012154 0.021608 0.0
0.000333 0.000606 0.0
0.000000 0.000000 0.0
0.000000 0.000000 0.0
0.000000 0.000000 0.0
0.000000 0.000000 0.0
0.000000 0.000000 0.0
0.000000 0.000000 0.0
0.000000 0.000000 0.0
0.000000 0.000000 0.0
0.008468 0.073306 0.0
0.015802 0.070752 0.0
0.023002 0.070267 0.0
0.030071 0.070598 0.0
0.037016 0.071234 0.0
0.043840 0.072039 0.0
0.050538 0.072994 0.0
0.057096 0.074119 0.0
0.063493 0.075453 0.0
0.069702 0.077050 0.0
0.075682 0.078987 0.0
0.081380 0.081380 0.0
0.086718 0.084420 0.0
0.091578 0.088460 0.0
0.095750 0.094290 0.0
0.098820 0.103248 0.0
0.099964 0.116148 0.0
0.097323 0.130008 0.0
0.086007 0.132188 0.0
0.057948 0.099355 0.0
0.018549 0.033864 0.0
0.000932 0.001746 0.0
0.000001 0.000002 0.0
0.000000 0.000000 0.0
0.000000 0.000000 0.0
0.000000 0.000000 0.0
0.000000 0.000000 0.0
0.000000 0.000000 0.0
0.000000 0.000000 0.0
0.000000 0.000000 0.0
0.008883 0.077905 0.0
0.016468 0.075299 0.0
0.023930 0.074727 0.0
0.031257 0.075062 0.0
0.038453 0.075747 0.0
0.045522 0.076623 0.0
0.052458 0.077662 0.0
0.059249 0.078885 0.0
0.065875 0.080332 0.0
0.072307 0.082058 0.0
0.078506 0.084147 0.0
0.084420 0.086718 0.0
0.089973 0.089973 0.0
0.095049 0.094276 0.0
0.099451 0.100438 0.0
0.102786 0.109862 0.0
0.104270 0.123503 0.0
0.102187 0.138628 0.0
0.092234 0.143373 0.0
0.067141 0.115940 0.0
0.028170 0.051736 0.0
0.002741 0.005169 0.0
0.000012 0.000022 0.0
0.000000 0.000000 0.0
0.000000 0.000000 0.0
0.000000 0.000000 0.0
0.000000 0.000000 0.0
0.000000 0.000000 0.0
0.000000 0.000000 0.0
0.000000 0.000000 0.0
0.009445 0.081946 0.0
0.017369 0.079355 0.0
0.025186 0.078672 0.0
0.032864 0.078996 0.0
0.040401 0.079730 0.0
0.047799 0.080682 0.0
0.055053 0.081814 0.0
0.062152 0.083143 0.0
0.069076 0.084710 0.0
0.075797 0.086575 0.0
0.082276 0.088822 0.0
0.088460 0.091578 0.0
0.094276 0.095049 0.0
0.099611 0.099611 0.0
0.104276 0.106085 0.0
0.107902 0.115924 0.0
0.109741 0.130235 0.0
0.108224 0.146596 0.0
0.099641 0.154023 0.0
0.077762 0.132678 0.0
0.041765 0.075152 0.0
0.008309 0.015275 0.0
0.000152 0.000282 0.0
0.000000 0.000000 0.0
0.000000 0.000000 0.0
0.000000 0.000000 0.0
0.000000 0.000000 0.0
0.000000 0.000000 0.0
0.000000 0.000000 0.0
0.000000 0.000000 0.0
0.010278 0.085145 0.0
0.018700 0.082677 0.0
0.027043 0.081841 0.0
0.035245 0.082132 0.0
0.043288 0.082911 0.0
0.051170 0.083949 0.0
0.058887 0.085189 0.0
0.066427 0.086642 0.0
0.073772 0.088348 0.0
0.080893 0.090369 0.0
0.087750 0.092792 0.0
0.094290 0.095750 0.0
0.100438 0.099451 0.0
0.106085 0.104276 0.0
0.111048 0.111048 0.0
0.114975 0.121255 0.0
0.117154 0.136166 0.0
0.116157 0.153736 0.0
0.108876 0.163920 0.0
0.090301 0.148886 0.0
0.059495 0.101167 0.0
0.024659 0.041399 0.0
0.002523 0.004188 0.0
0.000012 0.000019 0.0
0.000000 0.000000 0.0
0.000000 0.000000 0.0
0.000000 0.000000 0.0
0.000000 0.000000 0.0
0.000000 0.000000 0.0
0.000000 0.000000 0.0
0.011560 0.087007 0.0
0.020733 0.084832 0.0
0.029890 0.083765 0.0
0.038912 0.083964 0.0
0.047752 0.084772 0.0
0.056397 0.085906 0.0
0.064838 0.087279 0.0
0.073063 0.088889 0.0
0.081053 0.090770 0.0
0.088777 0.092985 0.0
0.096194 0.095624 0.0
0.103248 0.098820 0.0
0.109862 0.102786 0.0
0.115924 0.107902 0.0
0.121255 0.114975 0.0
0.125511 0.125511 0.0
0.127999 0.140960 0.0
0.127412 0.159739 0.0
0.121224 0.172787 0.0
0.105661 0.164118 0.0
0.080109 0.126607 0.0
0.050240 0.075745 0.0
0.019308 0.027623 0.0
0.001468 0.002055 0.0
0.000004 0.000005 0.0
0.000000 0.000000 0.0
0.000000 0.000000 0.0
0.000000 0.000000 0.0
0.000000 0.000000 0.0
0.000000 0.000000 0.0
0.013318 0.086848 0.0
0.023465 0.085118 0.0
0.033715 0.083632 0.0
0.043884 0.083584 0.0
0.053868 0.084349 0.0
0.063626 0.085570 0.0
0.073138 0.087105 0.0
0.082389 0.088921 0.0
0.091354 0.091042 0.0
0.100002 0.093522 0.0
0.108287 0.096452 0.0
0.116148 0.099964 0.0
0.123503 0.104270 0.0
0.130235 0.109741 0.0
0.136166 0.117154 0.0
0.140960 0.127999 0.0
0.143922 0.143922 0.0
0.143792 0.163934 0.0
0.138496 0.180065 0.0
0.125319 0.177958 0.0
0.103914 0.150528 0.0
0.078216 0.108664 0.0
0.049773 0.064729 0.0
0.016711 0.020869 0.0
0.000861 0.001060 0.0
0.000001 0.000001 0.0
0.000000 0.000000 0.0
0.000000 0.000000 0.0
0.000000 0.000000 0.0
0.000000 0.000000 0.0
0.015004 0.083581 0.0
0.025862 0.081909 0.0
0.036934 0.079430 0.0
0.048053 0.078726 0.0
0.059083 0.079247 0.0
0.069961 0.080508 0.0
0.080653 0.082258 0.0
0.091130 0.084400 0.0
0.101356 0.086919 0.0
0.111286 0.089852 0.0
0.120862 0.093278 0.0
0.130008 0.097323 0.0
0.138628 0.102187 0.0
0.146596 0.108224 0.0
0.153736 0.116157 0.0
0.159739 0.127412 0.0
0.163934 0.143792 0.0
0.165031 0.165031 0.0
0.161088 0.184494 0.0
0.150004 0.189339 0.0
0.131595 0.172059 0.0
0.108727 0.139348 0.0
0.082630 0.100872 0.0
0.048490 0.056641 0.0
0.010805 0.012369 0.0
0.000230 0.000261 0.0
0.000000 0.000000 0.0
0.000000 0.000000 0.0
0.000000 0.000000 0.0
0.000000 0.000000 0.0
0.014878 0.073137 0.0
0.024318 0.068767 0.0
0.033543 0.063483 0.0
0.043076 0.061295 0.0
0.053093 0.061418 0.0
0.063596 0.062932 0.0
0.074528 0.065316 0.0
0.085805 0.068329 0.0
0.097333 0.071883 0.0
0.109000 0.075972 0.0
0.120671 0.080646 0.0
0.132188 0.086007 0.0
0.143373 0.092234 0.0
0.154023 0.099641 0.0
0.163920 0.108876 0.0
0.172787 0.121224 0.0
0.180065 0.138496 0.0
0.184494 0.161088 0.0
0.183965 0.183965 0.0
0.176298 0.195999 0.0
0.161138 0.189095 0.0
0.140731 0.166122 0.0
0.116491 0.134216 0.0
0.083740 0.093468 0.0
0.035439 0.038749 0.0
0.003115 0.003379 0.0
0.000010 0.000011 0.0
0.000000 0.000000 0.0
0.000000 0.000000 0.0
0.000000 0.000000 0.0
0.009577 0.043944 0.0
0.012723 0.033449 0.0
0.015044 0.026058 0.0
0.018321 0.023632 0.0
0.022947 0.023958 0.0
0.028983 0.025813 0.0
0.036511 0.028731 0.0
0.045658 0.032580 0.0
0.056549 0.037365 0.0
0.069233 0.043143 0.0
0.083608 0.049981 0.0
0.099355 0.057948 0.0
0.115940 0.067141 0.0
0.132678 0.077762 0.0
0.148886 0.090301 0.0
0.164118 0.105661 0.0
0.177958 0.125319 0.0
0.189339 0.150004 0.0
0.195999 0.176298 0.0
0.195212 0.195212 0.0
0.185941 0.198577 0.0
0.169784 0.186063 0.0
0.148368 0.162129 0.0
0.117673 0.126515 0.0
0.064645 0.068479 0.0
0.010856 0.011422 0.0
0.000132 0.000139 0.0
0.000000 0.000000 0.0
0.000000 0.000000 0.0
0.000000 0.000000 0.0
0.001851 0.008262 0.0
0.001437 0.003631 0.0
0.001180 0.001953 0.0
0.001287 0.001584 0.0
0.001685 0.001679 0.0
0.002416 0.002050 0.0
0.003619 0.002709 0.0
0.005559 0.003764 0.0
0.008677 0.005425 0.0
0.013675 0.008040 0.0
0.021608 0.012154 0.0
0.033864 0.018549 0.0
0.051736 0.028170 0.0
0.075152 0.041765 0.0
0.101167 0.059495 0.0
0.126607 0.080109 0.0
0.150528 0.103914 0.0
0.172059 0.131595 0.0
0.189095 0.161138 0.0
0.198577 0.185941 0.0
0.198615 0.198615 0.0
0.189860 0.196656 0.0
0.173686 0.181846 0.0
0.146034 0.152302 0.0
0.088168 0.091251 0.0
0.017700 0.018237 0.0
0.000309 0.000317 0.0
0.000000 0.000000 0.0
0.000000 0.000000 0.0
0.000000 0.000000 0.0
0.000029 0.000128 0.0
0.000008 0.000019 0.0
0.000003 0.000005 0.0
0.000003 0.000003 0.0
0.000004 0.000004 0.0
0.000007 0.000006 0.0
0.000015 0.000011 0.0
0.000034 0.000022 0.0
0.000084 0.000051 0.0
0.000220 0.000126 0.0
0.000606 0.000333 0.0
0.001746 0.000932 0.0
0.005169 0.002741 0.0
0.015275 0.008309 0.0
0.041399 0.024659 0.0
0.075745 0.050240 0.0
0.108664 0.078216 0.0
0.139348 0.108727 0.0
0.166122 0.140731 0.0
0.186063 0.169784 0.0
0.196656 0.189860 0.0
0.197377 0.197377 0.0
0.188525 0.191655 0.0
0.163585 0.166883 0.0
0.094491 0.096194 0.0
0.014920 0.015158 0.0
0.000158 0.000160 0.0
0.000000 0.000000 0.0
0.000000 0.000000 0.0
0.000000 0.000000 0.0
0.000000 0.000000 0.0
0.000000 0.000000 0.0
0.000000 0.000000 0.0
0.000000 0.000000 0.0
0.000000 0.000000 0.0
0.000000 0.000000 0.0
0.000000 0.000000 0.0
0.000000 0.000000 0.0
0.000000 0.000000 0.0
0.000000 0.000000 0.0
0.000000 0.000000 0.0
0.000002 0.000001 0.0
0.000022 0.000012 0.0
0.000282 0.000152 0.0
0.004188 0.002523 0.0
0.027623 0.019308 0.0
0.064729 0.049773 0.0
0.100872 0.082630 0.0
0.134216 0.116491 0.0
0.162129 0.148368 0.0
0.181846 0.173686 0.0
0.191655 0.188525 0.0
0.189295 0.189295 0.0
0.158896 0.159921 0.0
0.065829 0.066316 0.0
0.004228 0.004257 0.0
0.000007 0.000007 0.0
0.000000 0.000000 0.0
0.000000 0.000000 0.0
0.000000 0.000000 0.0
0.000000 0.000000 0.0
0.000000 0.000000 0.0
0.000000 0.000000 0.0
0.000000 0.000000 0.0
0.000000 0.000000 0.0
0.000000 0.000000 0.0
0.000000 0.000000 0.0
0.000000 0.000000 0.0
0.000000 0.000000 0.0
0.000000 0.000000 0.0
0.000000 0.000000 0.0
0.000000 0.000000 0.0
0.000000 0.000000 0.0
0.000000 0.000000 0.0
0.000019 0.000012 0.0
0.002055 0.001468 0.0
0.020869 0.016711 0.0
0.056641 0.048490 0.0
0.093468 0.083740 0.0
0.126515 0.117673 0.0
0.152302 0.146034 0.0
0.166883 0.163585 0.0
0.159921 0.158896 0.0
0.098437 0.098437 0.0
0.014039 0.014066 0.0
0.000095 0.000095 0.0
0.000000 0.000000 0.0
0.000000 0.000000 0.0
0.000000 0.000000 0.0
0.000000 0.000000 0.0
0.000000 0.000000 0.0
0.000000 0.000000 0.0
0.000000 0.000000 0.0
0.000000 0.000000 0.0
0.000000 0.000000 0.0
0.000000 0.000000 0.0
0.000000 0.000000 0.0
0.000000 0.000000 0.0
0.000000 0.000000 0.0
0.000000 0.000000 0.0
0.000000 0.000000 0.0
0.000000 0.000000 0.0
0.000000 0.000000 0.0
0.000000 0.000000 0.0
0.000000 0.000000 0.0
0.000005 0.000004 0.0
0.001060 0.000861 0.0
0.012369 0.010805 0.0
0.038749 0.035439 0.0
0.068479 0.064645 0.0
0.091251 0.088168 0.0
0.096194 0.094491 0.0
0.066316 0.065829 0.0
0.014066 0.014039 0.0
0.000176 0.000176 0.0
0.000000 0.000000 0.0
0.000000 0.000000 0.0
0.000000 0.000000 0.0
0.000000 0.000000 0.0
0.000000 0.000000 0.0
0.000000 0.000000 0.0
0.000000 0.000000 0.0
0.000000 0.000000 0.0
0.000000 0.000000 0.0
0.000000 0.000000 0.0
0.000000 0.000000 0.0
0.000000 0.000000 0.0
0.000000 0.000000 0.0
0.000000 0.000000 0.0
0.000000 0.000000 0.0
0.000000 0.000000 0.0
0.000000 0.000000 0.0
0.000000 0.000000 0.0
0.000000 0.000000 0.0
0.000000 0.000000 0.0
0.000000 0.000000 0.0
0.000001 0.000001 0.0
0.000261 0.000230 0.0
0.003379 0.003115 0.0
0.011422 0.010856 0.0
0.018237 0.017700 0.0
0.015158 0.014920 0.0
0.004257 0.004228 0.0
0.000095 0.000095 0.0
0.000000 0.000000 0.0
0.000000 0.000000 0.0
0.000000 0.000000 0.0
0.000000 0.000000 0.0
0.000000 0.000000 0.0
0.000000 0.000000 0.0
0.000000 0.000000 0.0
0.000000 0.000000 0.0
0.000000 0.000000 0.0
0.000000 0.000000 0.0
0.000000 0.000000 0.0
0.000000 0.000000 0.0
0.000000 0.000000 0.0
0.000000 0.000000 0.0
0.000000 0.000000 0.0
0.000000 0.000000 0.0
0.000000 0.000000 0.0
0.000000 0.000000 0.0
0.000000 0.000000 0.0
0.000000 0.000000 0.0
0.000000 0.000000 0.0
0.000000 0.000000 0.0
0.000000 0.000000 0.0
0.000000 0.000000 0.0
0.000011 0.000010 0.0
0.000139 0.000132 0.0
0.000317 0.000309 0.0
0.000160 0.000158 0.0
0.000007 0.000007 0.0
0.000000 0.000000 0.0
0.000000 0.000000 0.0
0.000000 0.000000 0.0
0.000000 0.000000 0.0
0.000000 0.000000 0.0
0.000000 0.000000 0.0
0.000000 0.000000 0.0
0.000000 0.000000 0.0
0.000000 0.000000 0.0
0.000000 0.000000 0.0
0.000000 0.000000 0.0
0.000000 0.000000 0.0
0.000000 0.000000 0.0
0.000000 0.000000 0.0
0.000000 0.000000 0.0
0.000000 0.000000 0.0
0.000000 0.000000 0.0
0.000000 0.000000 0.0
0.000000 0.000000 0.0
0.000000 0.000000 0.0
0.000000 0.000000 0.0
0.000000 0.000000 0.0
0.000000 0.000000 0.0
0.000000 0.000000 0.0
0.000000 0.000000 0.0
0.000000 0.000000 0.0
0.000000 0.000000 0.0
0.000000 0.000000 0.0
0.000000 0.000000 0.0
0.000000 0.000000 0.0
0.000000 0.000000 0.0
0.000000 0.000000 0.0
0.000000 0.000000 0.0
0.000000 0.000000 0.0
0.000000 0.000000 0.0
0.000000 0.000000 0.0
0.000000 0.000000 0.0
0.000000 0.000000 0.0
0.000000 0.000000 0.0
0.000000 0.000000 0.0
0.000000 0.000000 0.0
0.000000 0.000000 0.0
0.000000 0.000000 0.0
0.000000 0.000000 0.0
0.000000 0.000000 0.0
0.000000 0.000000 0.0
0.000000 0.000000 0.0
0.000000 0.000000 0.0
0.000000 0.000000 0.0
0.000000 0.000000 0.0
0.000000 0.000000 0.0
0.000000 0.000000 0.0
0.000000 0.000000 0.0
0.000000 0.000000 0.0
0.000000 0.000000 0.0
0.000000 0.000000 0.0
0.000000 0.000000 0.0
0.000000 0.000000 0.0
0.000000 0.000000 0.0
0.000000 0.000000 0.0
0.000000 0.000000 0.0
0.000000 0.000000 0.0
0.000000 0.000000 0.0
0.000000 0.000000 0.0
0.000000 0.000000 0.0
0.000000 0.000000 0.0
0.000000 0.000000 0.0
0.000000 0.000000 0.0
0.000000 0.000000 0.0
0.000000 0.000000 0.0
0.000000 0.000000 0.0
0.000000 0.000000 0.0
0.000000 0.000000 0.0
0.000000 0.000000 0.0
0.000000 0.000000 0.0
0.000000 0.000000 0.0
0.000000 0.000000 0.0
0.000000 0.000000 0.0
0.000000 0.000000 0.0
0.000000 0.000000 0.0
0.000000 0.000000 0.0
0.000000 0.000000 0.0
0.000000 0.000000 0.0
0.000000 0.000000 0.0
0.000000 0.000000 0.0
0.000000 0.000000 0.0
0.000000 0.000000 0.0
0.000000 0.000000 0.0
0.000000 0.000000 0.0
0.000000 0.000000 0.0
0.000000 0.000000 0.0
0.000000 0.000000 0.0
0.000000 0.000000 0.0
0.000000 0.000000 0.0
0.000000 0.000000 0.0
0.000000 0.000000 0.0
0.000000 0.000000 0.0
</DataArray>
   </CellData>
  </Piece>
 </UnstructuredGrid>
</VTKFile>
