<VTKFile type="UnstructuredGrid" version="0.1" byte_order="LittleEndian">
 <UnstructuredGrid>
  <Piece NumberOfPoints="961" NumberOfCells="900">
   <Points>
    <DataArray name="Position" type="Float32" NumberOfComponents="3" format="ascii">
    0.000000 0.000000 0.0
    0.066667 0.000000 0.0
    0.133333 0.000000 0.0
    0.200000 0.000000 0.0
    0.266667 0.000000 0.0
    0.333333 0.000000 0.0
    0.400000 0.000000 0.0
    0.466667 0.000000 0.0
    0.533333 0.000000 0.0
    0.600000 0.000000 0.0
    0.666667 0.000000 0.0
    0.733333 0.000000 0.0
    0.800000 0.000000 0.0
    0.866667 0.000000 0.0
    0.933333 0.000000 0.0
    1.000000 0.000000 0.0
    1.066667 0.000000 0.0
    1.133333 0.000000 0.0
    1.200000 0.000000 0.0
    1.266667 0.000000 0.0
    1.333333 0.000000 0.0
    1.400000 0.000000 0.0
    1.466667 0.000000 0.0
    1.533333 0.000000 0.0
    1.600000 0.000000 0.0
    1.666667 0.000000 0.0
    1.733333 0.000000 0.0
    1.800000 0.000000 0.0
    1.866667 0.000000 0.0
    1.933333 0.000000 0.0
    2.000000 0.000000 0.0
    0.000000 0.066667 0.0
    0.066667 0.066667 0.0
    0.133333 0.066667 0.0
    0.200000 0.066667 0.0
    0.266667 0.066667 0.0
    0.333333 0.066667 0.0
    0.400000 0.066667 0.0
    0.466667 0.066667 0.0
    0.533333 0.066667 0.0
    0.600000 0.066667 0.0
    0.666667 0.066667 0.0
    0.733333 0.066667 0.0
    0.800000 0.066667 0.0
    0.866667 0.066667 0.0
    0.933333 0.066667 0.0
    1.000000 0.066667 0.0
    1.066667 0.066667 0.0
    1.133333 0.066667 0.0
    1.200000 0.066667 0.0
    1.266667 0.066667 0.0
    1.333333 0.066667 0.0
    1.400000 0.066667 0.0
    1.466667 0.066667 0.0
    1.533333 0.066667 0.0
    1.600000 0.066667 0.0
    1.666667 0.066667 0.0
    1.733333 0.066667 0.0
    1.800000 0.066667 0.0
    1.866667 0.066667 0.0
    1.933333 0.066667 0.0
    2.000000 0.066667 0.0
    0.000000 0.133333 0.0
    0.066667 0.133333 0.0
    0.133333 0.133333 0.0
    0.200000 0.133333 0.0
    0.266667 0.133333 0.0
    0.333333 0.133333 0.0
    0.400000 0.133333 0.0
    0.466667 0.133333 0.0
    0.533333 0.133333 0.0
    0.600000 0.133333 0.0
    0.666667 0.133333 0.0
    0.733333 0.133333 0.0
    0.800000 0.133333 0.0
    0.866667 0.133333 0.0
    0.933333 0.133333 0.0
    1.000000 0.133333 0.0
    1.066667 0.133333 0.0
    1.133333 0.133333 0.0
    1.200000 0.133333 0.0
    1.266667 0.133333 0.0
    1.333333 0.133333 0.0
    1.400000 0.133333 0.0
    1.466667 0.133333 0.0
    1.533333 0.133333 0.0
    1.600000 0.133333 0.0
    1.666667 0.133333 0.0
    1.733333 0.133333 0.0
    1.800000 0.133333 0.0
    1.866667 0.133333 0.0
    1.933333 0.133333 0.0
    2.000000 0.133333 0.0
    0.000000 0.200000 0.0
    0.066667 0.200000 0.0
    0.133333 0.200000 0.0
    0.200000 0.200000 0.0
    0.266667 0.200000 0.0
    0.333333 0.200000 0.0
    0.400000 0.200000 0.0
    0.466667 0.200000 0.0
    0.533333 0.200000 0.0
    0.600000 0.200000 0.0
    0.666667 0.200000 0.0
    0.733333 0.200000 0.0
    0.800000 0.200000 0.0
    0.866667 0.200000 0.0
    0.933333 0.200000 0.0
    1.000000 0.200000 0.0
    1.066667 0.200000 0.0
    1.133333 0.200000 0.0
    1.200000 0.200000 0.0
    1.266667 0.200000 0.0
    1.333333 0.200000 0.0
    1.400000 0.200000 0.0
    1.466667 0.200000 0.0
    1.533333 0.200000 0.0
    1.600000 0.200000 0.0
    1.666667 0.200000 0.0
    1.733333 0.200000 0.0
    1.800000 0.200000 0.0
    1.866667 0.200000 0.0
    1.933333 0.200000 0.0
    2.000000 0.200000 0.0
    0.000000 0.266667 0.0
    0.066667 0.266667 0.0
    0.133333 0.266667 0.0
    0.200000 0.266667 0.0
    0.266667 0.266667 0.0
    0.333333 0.266667 0.0
    0.400000 0.266667 0.0
    0.466667 0.266667 0.0
    0.533333 0.266667 0.0
    0.600000 0.266667 0.0
    0.666667 0.266667 0.0
    0.733333 0.266667 0.0
    0.800000 0.266667 0.0
    0.866667 0.266667 0.0
    0.933333 0.266667 0.0
    1.000000 0.266667 0.0
    1.066667 0.266667 0.0
    1.133333 0.266667 0.0
    1.200000 0.266667 0.0
    1.266667 0.266667 0.0
    1.333333 0.266667 0.0
    1.400000 0.266667 0.0
    1.466667 0.266667 0.0
    1.533333 0.266667 0.0
    1.600000 0.266667 0.0
    1.666667 0.266667 0.0
    1.733333 0.266667 0.0
    1.800000 0.266667 0.0
    1.866667 0.266667 0.0
    1.933333 0.266667 0.0
    2.000000 0.266667 0.0
    0.000000 0.333333 0.0
    0.066667 0.333333 0.0
    0.133333 0.333333 0.0
    0.200000 0.333333 0.0
    0.266667 0.333333 0.0
    0.333333 0.333333 0.0
    0.400000 0.333333 0.0
    0.466667 0.333333 0.0
    0.533333 0.333333 0.0
    0.600000 0.333333 0.0
    0.666667 0.333333 0.0
    0.733333 0.333333 0.0
    0.800000 0.333333 0.0
    0.866667 0.333333 0.0
    0.933333 0.333333 0.0
    1.000000 0.333333 0.0
    1.066667 0.333333 0.0
    1.133333 0.333333 0.0
    1.200000 0.333333 0.0
    1.266667 0.333333 0.0
    1.333333 0.333333 0.0
    1.400000 0.333333 0.0
    1.466667 0.333333 0.0
    1.533333 0.333333 0.0
    1.600000 0.333333 0.0
    1.666667 0.333333 0.0
    1.733333 0.333333 0.0
    1.800000 0.333333 0.0
    1.866667 0.333333 0.0
    1.933333 0.333333 0.0
    2.000000 0.333333 0.0
    0.000000 0.400000 0.0
    0.066667 0.400000 0.0
    0.133333 0.400000 0.0
    0.200000 0.400000 0.0
    0.266667 0.400000 0.0
    0.333333 0.400000 0.0
    0.400000 0.400000 0.0
    0.466667 0.400000 0.0
    0.533333 0.400000 0.0
    0.600000 0.400000 0.0
    0.666667 0.400000 0.0
    0.733333 0.400000 0.0
    0.800000 0.400000 0.0
    0.866667 0.400000 0.0
    0.933333 0.400000 0.0
    1.000000 0.400000 0.0
    1.066667 0.400000 0.0
    1.133333 0.400000 0.0
    1.200000 0.400000 0.0
    1.266667 0.400000 0.0
    1.333333 0.400000 0.0
    1.400000 0.400000 0.0
    1.466667 0.400000 0.0
    1.533333 0.400000 0.0
    1.600000 0.400000 0.0
    1.666667 0.400000 0.0
    1.733333 0.400000 0.0
    1.800000 0.400000 0.0
    1.866667 0.400000 0.0
    1.933333 0.400000 0.0
    2.000000 0.400000 0.0
    0.000000 0.466667 0.0
    0.066667 0.466667 0.0
    0.133333 0.466667 0.0
    0.200000 0.466667 0.0
    0.266667 0.466667 0.0
    0.333333 0.466667 0.0
    0.400000 0.466667 0.0
    0.466667 0.466667 0.0
    0.533333 0.466667 0.0
    0.600000 0.466667 0.0
    0.666667 0.466667 0.0
    0.733333 0.466667 0.0
    0.800000 0.466667 0.0
    0.866667 0.466667 0.0
    0.933333 0.466667 0.0
    1.000000 0.466667 0.0
    1.066667 0.466667 0.0
    1.133333 0.466667 0.0
    1.200000 0.466667 0.0
    1.266667 0.466667 0.0
    1.333333 0.466667 0.0
    1.400000 0.466667 0.0
    1.466667 0.466667 0.0
    1.533333 0.466667 0.0
    1.600000 0.466667 0.0
    1.666667 0.466667 0.0
    1.733333 0.466667 0.0
    1.800000 0.466667 0.0
    1.866667 0.466667 0.0
    1.933333 0.466667 0.0
    2.000000 0.466667 0.0
    0.000000 0.533333 0.0
    0.066667 0.533333 0.0
    0.133333 0.533333 0.0
    0.200000 0.533333 0.0
    0.266667 0.533333 0.0
    0.333333 0.533333 0.0
    0.400000 0.533333 0.0
    0.466667 0.533333 0.0
    0.533333 0.533333 0.0
    0.600000 0.533333 0.0
    0.666667 0.533333 0.0
    0.733333 0.533333 0.0
    0.800000 0.533333 0.0
    0.866667 0.533333 0.0
    0.933333 0.533333 0.0
    1.000000 0.533333 0.0
    1.066667 0.533333 0.0
    1.133333 0.533333 0.0
    1.200000 0.533333 0.0
    1.266667 0.533333 0.0
    1.333333 0.533333 0.0
    1.400000 0.533333 0.0
    1.466667 0.533333 0.0
    1.533333 0.533333 0.0
    1.600000 0.533333 0.0
    1.666667 0.533333 0.0
    1.733333 0.533333 0.0
    1.800000 0.533333 0.0
    1.866667 0.533333 0.0
    1.933333 0.533333 0.0
    2.000000 0.533333 0.0
    0.000000 0.600000 0.0
    0.066667 0.600000 0.0
    0.133333 0.600000 0.0
    0.200000 0.600000 0.0
    0.266667 0.600000 0.0
    0.333333 0.600000 0.0
    0.400000 0.600000 0.0
    0.466667 0.600000 0.0
    0.533333 0.600000 0.0
    0.600000 0.600000 0.0
    0.666667 0.600000 0.0
    0.733333 0.600000 0.0
    0.800000 0.600000 0.0
    0.866667 0.600000 0.0
    0.933333 0.600000 0.0
    1.000000 0.600000 0.0
    1.066667 0.600000 0.0
    1.133333 0.600000 0.0
    1.200000 0.600000 0.0
    1.266667 0.600000 0.0
    1.333333 0.600000 0.0
    1.400000 0.600000 0.0
    1.466667 0.600000 0.0
    1.533333 0.600000 0.0
    1.600000 0.600000 0.0
    1.666667 0.600000 0.0
    1.733333 0.600000 0.0
    1.800000 0.600000 0.0
    1.866667 0.600000 0.0
    1.933333 0.600000 0.0
    2.000000 0.600000 0.0
    0.000000 0.666667 0.0
    0.066667 0.666667 0.0
    0.133333 0.666667 0.0
    0.200000 0.666667 0.0
    0.266667 0.666667 0.0
    0.333333 0.666667 0.0
    0.400000 0.666667 0.0
    0.466667 0.666667 0.0
    0.533333 0.666667 0.0
    0.600000 0.666667 0.0
    0.666667 0.666667 0.0
    0.733333 0.666667 0.0
    0.800000 0.666667 0.0
    0.866667 0.666667 0.0
    0.933333 0.666667 0.0
    1.000000 0.666667 0.0
    1.066667 0.666667 0.0
    1.133333 0.666667 0.0
    1.200000 0.666667 0.0
    1.266667 0.666667 0.0
    1.333333 0.666667 0.0
    1.400000 0.666667 0.0
    1.466667 0.666667 0.0
    1.533333 0.666667 0.0
    1.600000 0.666667 0.0
    1.666667 0.666667 0.0
    1.733333 0.666667 0.0
    1.800000 0.666667 0.0
    1.866667 0.666667 0.0
    1.933333 0.666667 0.0
    2.000000 0.666667 0.0
    0.000000 0.733333 0.0
    0.066667 0.733333 0.0
    0.133333 0.733333 0.0
    0.200000 0.733333 0.0
    0.266667 0.733333 0.0
    0.333333 0.733333 0.0
    0.400000 0.733333 0.0
    0.466667 0.733333 0.0
    0.533333 0.733333 0.0
    0.600000 0.733333 0.0
    0.666667 0.733333 0.0
    0.733333 0.733333 0.0
    0.800000 0.733333 0.0
    0.866667 0.733333 0.0
    0.933333 0.733333 0.0
    1.000000 0.733333 0.0
    1.066667 0.733333 0.0
    1.133333 0.733333 0.0
    1.200000 0.733333 0.0
    1.266667 0.733333 0.0
    1.333333 0.733333 0.0
    1.400000 0.733333 0.0
    1.466667 0.733333 0.0
    1.533333 0.733333 0.0
    1.600000 0.733333 0.0
    1.666667 0.733333 0.0
    1.733333 0.733333 0.0
    1.800000 0.733333 0.0
    1.866667 0.733333 0.0
    1.933333 0.733333 0.0
    2.000000 0.733333 0.0
    0.000000 0.800000 0.0
    0.066667 0.800000 0.0
    0.133333 0.800000 0.0
[...]
   <CellData Vectors="vectors">
<DataArray type="Float32" Name="cellCenteredVelocity" NumberOfComponents="3" format="ascii">
0.007380 0.007380 0.0
0.013923 0.007007 0.0
0.020320 0.006931 0.0
0.026594 0.006961 0.0
0.032755 0.007033 0.0
0.038806 0.007128 0.0
0.044737 0.007244 0.0
0.050533 0.007383 0.0
0.056170 0.007549 0.0
0.061616 0.007751 0.0
0.066827 0.007999 0.0
0.071742 0.008308 0.0
0.076271 0.008707 0.0
0.080273 0.009245 0.0
0.083481 0.010036 0.0
0.085436 0.011251 0.0
0.085500 0.012934 0.0
0.082717 0.014620 0.0
0.073660 0.014785 0.0
0.047366 0.010223 0.0
0.010634 0.002365 0.0
0.000234 0.000053 0.0
0.000000 0.000000 0.0
0.000000 0.000000 0.0
0.000000 0.000000 0.0
0.000000 0.000000 0.0
0.000000 0.000000 0.0
0.000000 0.000000 0.0
0.000000 0.000000 0.0
0.000000 0.000000 0.0
0.007007 0.013923 0.0
0.013313 0.013313 0.0
0.019468 0.013221 0.0
0.025511 0.013286 0.0
0.031456 0.013409 0.0
0.037303 0.013564 0.0
0.043044 0.013752 0.0
0.048663 0.013976 0.0
0.054140 0.014244 0.0
0.059446 0.014569 0.0
0.064543 0.014966 0.0
0.069377 0.015462 0.0
0.073870 0.016099 0.0
0.077902 0.016958 0.0
0.081246 0.018218 0.0
0.083508 0.020140 0.0
0.084046 0.022750 0.0
0.081462 0.025187 0.0
0.070251 0.024343 0.0
0.037701 0.014084 0.0
0.005143 0.002002 0.0
0.000042 0.000017 0.0
0.000000 0.000000 0.0
0.000000 0.000000 0.0
0.000000 0.000000 0.0
0.000000 0.000000 0.0
0.000000 0.000000 0.0
0.000000 0.000000 0.0
0.000000 0.000000 0.0
0.000000 0.000000 0.0
0.006931 0.020320 0.0
0.013221 0.019468 0.0
0.019358 0.019358 0.0
0.025378 0.019458 0.0
0.031297 0.019632 0.0
0.037115 0.019851 0.0
0.042823 0.020112 0.0
0.048406 0.020424 0.0
0.053842 0.020797 0.0
0.059100 0.021248 0.0
0.064140 0.021800 0.0
0.068907 0.022489 0.0
0.073319 0.023375 0.0
0.077246 0.024570 0.0
0.080450 0.026327 0.0
0.082499 0.029011 0.0
0.082663 0.032660 0.0
0.079208 0.035963 0.0
0.065468 0.033758 0.0
0.030135 0.017017 0.0
0.002898 0.001718 0.0
0.000012 0.000007 0.0
0.000000 0.000000 0.0
0.000000 0.000000 0.0
0.000000 0.000000 0.0
0.000000 0.000000 0.0
0.000000 0.000000 0.0
0.000000 0.000000 0.0
0.000000 0.000000 0.0
0.000000 0.000000 0.0
0.006961 0.026594 0.0
0.013286 0.025511 0.0
0.019458 0.025378 0.0
0.025511 0.025511 0.0
0.031461 0.025737 0.0
0.037308 0.026017 0.0
0.043044 0.026352 0.0
0.048652 0.026750 0.0
0.054110 0.027227 0.0
0.059389 0.027803 0.0
0.064445 0.028509 0.0
0.069223 0.029389 0.0
0.073638 0.030521 0.0
0.077556 0.032050 0.0
0.080728 0.034299 0.0
0.082693 0.037754 0.0
0.082632 0.042493 0.0
0.078583 0.046780 0.0
0.063419 0.043427 0.0
0.027460 0.020809 0.0
0.002363 0.001882 0.0
0.000008 0.000006 0.0
0.000000 0.000000 0.0
0.000000 0.000000 0.0
0.000000 0.000000 0.0
0.000000 0.000000 0.0
0.000000 0.000000 0.0
0.000000 0.000000 0.0
0.000000 0.000000 0.0
0.000000 0.000000 0.0
0.007033 0.032755 0.0
0.013409 0.031456 0.0
0.019632 0.031297 0.0
0.025737 0.031461 0.0
0.031736 0.031736 0.0
0.037633 0.032079 0.0
0.043417 0.032486 0.0
0.049074 0.032970 0.0
0.054581 0.033549 0.0
0.059907 0.034248 0.0
0.065011 0.035103 0.0
0.069836 0.036170 0.0
0.074298 0.037542 0.0
0.078262 0.039394 0.0
0.081478 0.042120 0.0
0.083472 0.046324 0.0
0.083374 0.052148 0.0
0.079101 0.057498 0.0
0.063501 0.053473 0.0
0.027685 0.025929 0.0
0.002472 0.002435 0.0
0.000009 0.000009 0.0
0.000000 0.000000 0.0
0.000000 0.000000 0.0
0.000000 0.000000 0.0
0.000000 0.000000 0.0
0.000000 0.000000 0.0
0.000000 0.000000 0.0
0.000000 0.000000 0.0
0.000000 0.000000 0.0
0.007128 0.038806 0.0
0.013564 0.037303 0.0
0.019851 0.037115 0.0
0.026017 0.037308 0.0
0.032079 0.037633 0.0
0.038036 0.038036 0.0
0.043881 0.038515 0.0
0.049599 0.039084 0.0
0.055167 0.039763 0.0
0.060555 0.040583 0.0
0.065722 0.041585 0.0
0.070612 0.042835 0.0
0.075142 0.044440 0.0
0.079179 0.046604 0.0
0.082477 0.049787 0.0
0.084563 0.054707 0.0
0.084549 0.061585 0.0
0.080310 0.068054 0.0
0.064893 0.063894 0.0
0.029536 0.032440 0.0
0.002958 0.003422 0.0
0.000013 0.000016 0.0
0.000000 0.000000 0.0
0.000000 0.000000 0.0
0.000000 0.000000 0.0
0.000000 0.000000 0.0
0.000000 0.000000 0.0
0.000000 0.000000 0.0
0.000000 0.000000 0.0
0.000000 0.000000 0.0
0.007244 0.044737 0.0
0.013752 0.043044 0.0
0.020112 0.042823 0.0
0.026352 0.043044 0.0
0.032486 0.043417 0.0
0.038515 0.043881 0.0
0.044432 0.044432 0.0
0.050221 0.045085 0.0
0.055861 0.045864 0.0
0.061322 0.046803 0.0
0.066565 0.047950 0.0
0.071532 0.049378 0.0
0.076144 0.051211 0.0
0.080269 0.053676 0.0
0.083671 0.057296 0.0
0.085884 0.062896 0.0
0.086023 0.070787 0.0
0.081978 0.078413 0.0
0.067109 0.074637 0.0
0.032478 0.040386 0.0
0.003812 0.005003 0.0
0.000023 0.000031 0.0
0.000000 0.000000 0.0
0.000000 0.000000 0.0
0.000000 0.000000 0.0
0.000000 0.000000 0.0
0.000000 0.000000 0.0
0.000000 0.000000 0.0
0.000000 0.000000 0.0
0.000000 0.000000 0.0
0.007383 0.050533 0.0
0.013976 0.048663 0.0
0.020424 0.048406 0.0
0.026750 0.048652 0.0
0.032970 0.049074 0.0
0.039084 0.049599 0.0
0.045085 0.050221 0.0
0.050958 0.050958 0.0
0.056683 0.051837 0.0
0.062229 0.052894 0.0
0.067558 0.054184 0.0
0.072615 0.055788 0.0
0.077320 0.057842 0.0
0.081548 0.060600 0.0
0.085067 0.064637 0.0
0.087429 0.070879 0.0
0.087764 0.079737 0.0
0.084014 0.088549 0.0
0.069919 0.085628 0.0
0.036330 0.049835 0.0
0.005148 0.007471 0.0
0.000046 0.000069 0.0
0.000000 0.000000 0.0
0.000000 0.000000 0.0
0.000000 0.000000 0.0
0.000000 0.000000 0.0
0.000000 0.000000 0.0
0.000000 0.000000 0.0
0.000000 0.000000 0.0
0.000000 0.000000 0.0
0.007549 0.056170 0.0
0.014244 0.054140 0.0
0.020797 0.053842 0.0
0.027227 0.054110 0.0
0.033549 0.054581 0.0
0.039763 0.055167 0.0
0.045864 0.055861 0.0
0.051837 0.056683 0.0
0.057660 0.057660 0.0
0.063307 0.058836 0.0
0.068737 0.060267 0.0
0.073897 0.062045 0.0
0.078710 0.064316 0.0
0.083053 0.067357 0.0
0.086705 0.071791 0.0
0.089233 0.078639 0.0
0.089792 0.088415 0.0
0.086405 0.098429 0.0
0.073236 0.096780 0.0
0.041053 0.060841 0.0
0.007183 0.011296 0.0
0.000099 0.000159 0.0
0.000000 0.000000 0.0
0.000000 0.000000 0.0
0.000000 0.000000 0.0
0.000000 0.000000 0.0
0.000000 0.000000 0.0
0.000000 0.000000 0.0
0.000000 0.000000 0.0
0.000000 0.000000 0.0
0.007751 0.061616 0.0
0.014569 0.059446 0.0
0.021248 0.059100 0.0
0.027803 0.059389 0.0
0.034248 0.059907 0.0
0.040583 0.060555 0.0
0.046803 0.061322 0.0
0.052894 0.062229 0.0
0.058836 0.063307 0.0
0.064600 0.064600 0.0
0.070149 0.066172 0.0
0.075430 0.068121 0.0
0.080367 0.070605 0.0
0.084841 0.073921 0.0
0.088642 0.078732 0.0
0.091354 0.086146 0.0
0.092163 0.096789 0.0
0.089188 0.108014 0.0
0.077052 0.107993 0.0
0.046668 0.073385 0.0
0.010267 0.017185 0.0
0.000226 0.000388 0.0
0.000000 0.000000 0.0
0.000000 0.000000 0.0
0.000000 0.000000 0.0
0.000000 0.000000 0.0
0.000000 0.000000 0.0
0.000000 0.000000 0.0
0.000000 0.000000 0.0
0.000000 0.000000 0.0
0.007999 0.066827 0.0
0.014966 0.064543 0.0
0.021800 0.064140 0.0
0.028509 0.064445 0.0
0.035103 0.065011 0.0
0.041585 0.065722 0.0
0.047950 0.066565 0.0
0.054184 0.067558 0.0
0.060267 0.068737 0.0
0.066172 0.070149 0.0
0.071862 0.071862 0.0
0.077285 0.073980 0.0
0.082367 0.076673 0.0
0.086993 0.080255 0.0
0.090962 0.085423 0.0
0.093877 0.093363 0.0
0.094959 0.104819 0.0
0.092435 0.117250 0.0
0.081415 0.119146 0.0
0.053217 0.087313 0.0
0.014913 0.026119 0.0
0.000551 0.000992 0.0
0.000000 0.000001 0.0
0.000000 0.000000 0.0
0.000000 0.000000 0.0
0.000000 0.000000 0.0
0.000000 0.000000 0.0
0.000000 0.000000 0.0
0.000000 0.000000 0.0
0.000000 0.000000 0.0
0.008308 0.071742 0.0
0.015462 0.069377 0.0
0.022489 0.068907 0.0
0.029389 0.069223 0.0
0.036170 0.069836 0.0
0.042835 0.070612 0.0
0.049378 0.071532 0.0
0.055788 0.072615 0.0
0.062045 0.073897 0.0
0.068121 0.075430 0.0
0.073980 0.077285 0.0
0.079572 0.079572 0.0
0.084825 0.082471 0.0
0.089627 0.086309 0.0
0.093787 0.091814 0.0
0.096928 0.100238 0.0
0.098306 0.112447 0.0
0.096267 0.126068 0.0
0.086421 0.130104 0.0
0.060752 0.102306 0.0
0.021793 0.039245 0.0
0.001415 0.002622 0.0
0.000003 0.000005 0.0
0.000000 0.000000 0.0
0.000000 0.000000 0.0
0.000000 0.000000 0.0
0.000000 0.000000 0.0
0.000000 0.000000 0.0
0.000000 0.000000 0.0
0.000000 0.000000 0.0
0.008707 0.076271 0.0
0.016099 0.073870 0.0
0.023375 0.073319 0.0
0.030521 0.073638 0.0
0.037542 0.074298 0.0
0.044440 0.075142 0.0
0.051211 0.076144 0.0
0.057842 0.077320 0.0
0.064316 0.078710 0.0
0.070605 0.080367 0.0
0.076673 0.082367 0.0
0.082471 0.084825 0.0
0.087928 0.087928 0.0
0.092937 0.092016 0.0
0.097315 0.097836 0.0
0.100707 0.106698 0.0
0.102403 0.119598 0.0
0.100872 0.134380 0.0
0.092240 0.140708 0.0
0.069366 0.117884 0.0
0.031617 0.057388 0.0
0.003780 0.007063 0.0
0.000024 0.000046 0.0
0.000000 0.000000 0.0
0.000000 0.000000 0.0
0.000000 0.000000 0.0
0.000000 0.000000 0.0
0.000000 0.000000 0.0
0.000000 0.000000 0.0
0.000000 0.000000 0.0
0.009245 0.080273 0.0
0.016958 0.077902 0.0
0.024570 0.077246 0.0
0.032050 0.077556 0.0
0.039394 0.078262 0.0
0.046604 0.079179 0.0
0.053676 0.080269 0.0
0.060600 0.081548 0.0
0.067357 0.083053 0.0
0.073921 0.084841 0.0
0.080255 0.086993 0.0
0.086309 0.089627 0.0
0.092016 0.092937 0.0
0.097271 0.097271 0.0
0.101900 0.103387 0.0
0.105566 0.112640 0.0
0.107596 0.126162 0.0
0.106581 0.142071 0.0
0.099168 0.150782 0.0
0.079262 0.133471 0.0
0.044839 0.080011 0.0
0.010290 0.018814 0.0
0.000256 0.000471 0.0
0.000000 0.000000 0.0
0.000000 0.000000 0.0
0.000000 0.000000 0.0
0.000000 0.000000 0.0
0.000000 0.000000 0.0
0.000000 0.000000 0.0
0.000000 0.000000 0.0
0.010036 0.083481 0.0
0.018218 0.081246 0.0
0.026327 0.080450 0.0
0.034299 0.080728 0.0
0.042120 0.081478 0.0
0.049787 0.082477 0.0
0.057296 0.083671 0.0
0.064637 0.085067 0.0
0.071791 0.086705 0.0
0.078732 0.088642 0.0
0.085423 0.090962 0.0
0.091814 0.093787 0.0
0.097836 0.097315 0.0
0.103387 0.101900 0.0
0.108300 0.108300 0.0
0.112254 0.117899 0.0
0.114604 0.131977 0.0
0.114064 0.148978 0.0
0.107805 0.160130 0.0
0.090907 0.148503 0.0
0.061522 0.104418 0.0
0.027089 0.045592 0.0
0.003299 0.005493 0.0
0.000022 0.000036 0.0
0.000000 0.000000 0.0
0.000000 0.000000 0.0
0.000000 0.000000 0.0
0.000000 0.000000 0.0
0.000000 0.000000 0.0
0.000000 0.000000 0.0
0.011251 0.085436 0.0
0.020140 0.083508 0.0
0.029011 0.082499 0.0
0.037754 0.082693 0.0
0.046324 0.083472 0.0
0.054707 0.084563 0.0
0.062896 0.085884 0.0
0.070879 0.087429 0.0
0.078639 0.089233 0.0
0.086146 0.091354 0.0
0.093363 0.093877 0.0
0.100238 0.096928 0.0
0.106698 0.100707 0.0
0.112640 0.105566 0.0
0.117899 0.112254 0.0
0.122165 0.122165 0.0
0.124810 0.136736 0.0
0.124646 0.154819 0.0
0.119353 0.168499 0.0
0.105189 0.162594 0.0
0.080839 0.128180 0.0
0.051545 0.078475 0.0
0.021231 0.030633 0.0
0.001953 0.002751 0.0
0.000007 0.000010 0.0
0.000000 0.000000 0.0
0.000000 0.000000 0.0
0.000000 0.000000 0.0
0.000000 0.000000 0.0
0.000000 0.000000 0.0
0.012934 0.085500 0.0
0.022750 0.084046 0.0
0.032660 0.082663 0.0
0.042493 0.082632 0.0
0.052148 0.083374 0.0
0.061585 0.084549 0.0
0.070787 0.086023 0.0
0.079737 0.087764 0.0
0.088415 0.089792 0.0
0.096789 0.092163 0.0
0.104819 0.094959 0.0
0.112447 0.098306 0.0
0.119598 0.102403 0.0
0.126162 0.107596 0.0
0.131977 0.114604 0.0
0.136736 0.124810 0.0
0.139813 0.139813 0.0
0.140059 0.158986 0.0
0.135547 0.175380 0.0
0.123555 0.175371 0.0
0.103222 0.150496 0.0
0.078201 0.109916 0.0
0.050814 0.066838 0.0
0.018895 0.023772 0.0
0.001239 0.001533 0.0
0.000002 0.000003 0.0
0.000000 0.000000 0.0
0.000000 0.000000 0.0
0.000000 0.000000 0.0
0.000000 0.000000 0.0
0.014620 0.082717 0.0
0.025187 0.081462 0.0
0.035963 0.079208 0.0
0.046780 0.078583 0.0
0.057498 0.079101 0.0
0.068054 0.080310 0.0
0.078413 0.081978 0.0
0.088549 0.084014 0.0
0.098429 0.086405 0.0
0.108014 0.089188 0.0
0.117250 0.092435 0.0
0.126068 0.096267 0.0
0.134380 0.100872 0.0
0.142071 0.106581 0.0
0.148978 0.114064 0.0
0.154819 0.124646 0.0
0.158986 0.140059 0.0
0.160305 0.160305 0.0
0.156970 0.179629 0.0
0.146873 0.185880 0.0
0.129461 0.170603 0.0
0.107363 0.139187 0.0
0.082402 0.101768 0.0
0.050716 0.059738 0.0
0.013386 0.015406 0.0
0.000405 0.000463 0.0
0.000000 0.000000 0.0
0.000000 0.000000 0.0
0.000000 0.000000 0.0
0.000000 0.000000 0.0
0.014785 0.073660 0.0
0.024343 0.070251 0.0
0.033758 0.065468 0.0
0.043427 0.063419 0.0
0.053473 0.063501 0.0
0.063894 0.064893 0.0
0.074637 0.067109 0.0
0.085628 0.069919 0.0
0.096780 0.073236 0.0
0.107993 0.077052 0.0
0.119146 0.081415 0.0
0.130104 0.086421 0.0
0.140708 0.092240 0.0
0.150782 0.099168 0.0
0.160130 0.107805 0.0
0.168499 0.119353 0.0
0.175380 0.135547 0.0
0.179629 0.156970 0.0
0.179304 0.179304 0.0
0.172274 0.192066 0.0
0.157924 0.186597 0.0
0.138274 0.164804 0.0
0.115138 0.134009 0.0
0.085141 0.095819 0.0
0.040565 0.044588 0.0
0.004813 0.005242 0.0
0.000029 0.000032 0.0
0.000000 0.000000 0.0
0.000000 0.000000 0.0
0.000000 0.000000 0.0
0.010223 0.047366 0.0
0.014084 0.037701 0.0
0.017017 0.030135 0.0
0.020809 0.027460 0.0
0.025929 0.027685 0.0
0.032440 0.029536 0.0
0.040386 0.032478 0.0
0.049835 0.036330 0.0
0.060841 0.041053 0.0
0.073385 0.046668 0.0
0.087313 0.053217 0.0
0.102306 0.060752 0.0
0.117884 0.069366 0.0
0.133471 0.079262 0.0
0.148503 0.090907 0.0
0.162594 0.105189 0.0
0.175371 0.123555 0.0
0.185880 0.146873 0.0
0.192066 0.172274 0.0
0.191324 0.191324 0.0
0.182450 0.195576 0.0
0.166830 0.184017 0.0
0.146353 0.161145 0.0
0.118511 0.128292 0.0
0.071755 0.076377 0.0
0.016035 0.016924 0.0
0.000348 0.000367 0.0
0.000000 0.000000 0.0
0.000000 0.000000 0.0
0.000000 0.000000 0.0
0.002365 0.010634 0.0
0.002002 0.005143 0.0
0.001718 0.002898 0.0
0.001882 0.002363 0.0
0.002435 0.002472 0.0
0.003422 0.002958 0.0
0.005003 0.003812 0.0
0.007471 0.005148 0.0
0.011296 0.007183 0.0
0.017185 0.010267 0.0
0.026119 0.014913 0.0
0.039245 0.021793 0.0
0.057388 0.031617 0.0
0.080011 0.044839 0.0
0.104418 0.061522 0.0
0.128180 0.080839 0.0
0.150496 0.103222 0.0
0.170603 0.129461 0.0
0.186597 0.157924 0.0
0.195576 0.182450 0.0
0.195559 0.195559 0.0
0.187026 0.194298 0.0
0.171581 0.180480 0.0
0.147086 0.154146 0.0
0.098521 0.102353 0.0
0.027211 0.028109 0.0
0.000912 0.000940 0.0
0.000000 0.000000 0.0
0.000000 0.000000 0.0
0.000000 0.000000 0.0
0.000053 0.000234 0.0
0.000017 0.000042 0.0
0.000007 0.000012 0.0
0.000006 0.000008 0.0
0.000009 0.000009 0.0
0.000016 0.000013 0.0
0.000031 0.000023 0.0
0.000069 0.000046 0.0
0.000159 0.000099 0.0
0.000388 0.000226 0.0
0.000992 0.000551 0.0
0.002622 0.001415 0.0
0.007063 0.003780 0.0
0.018814 0.010290 0.0
0.045592 0.027089 0.0
0.078475 0.051545 0.0
0.109916 0.078201 0.0
0.139187 0.107363 0.0
0.164804 0.138274 0.0
0.184017 0.166830 0.0
0.194298 0.187026 0.0
0.195037 0.195037 0.0
0.186915 0.190396 0.0
0.166595 0.170433 0.0
0.112097 0.114406 0.0
0.027384 0.027873 0.0
0.000691 0.000703 0.0
0.000000 0.000000 0.0
0.000000 0.000000 0.0
0.000000 0.000000 0.0
0.000000 0.000000 0.0
0.000000 0.000000 0.0
0.000000 0.000000 0.0
0.000000 0.000000 0.0
0.000000 0.000000 0.0
0.000000 0.000000 0.0
0.000000 0.000000 0.0
0.000000 0.000000 0.0
0.000000 0.000000 0.0
0.000000 0.000000 0.0
0.000001 0.000000 0.0
0.000005 0.000003 0.0
0.000046 0.000024 0.0
0.000471 0.000256 0.0
0.005493 0.003299 0.0
0.030633 0.021231 0.0
0.066838 0.050814 0.0
0.101768 0.082402 0.0
0.134009 0.115138 0.0
0.161145 0.146353 0.0
0.180480 0.171581 0.0
0.190396 0.186915 0.0
0.189804 0.189804 0.0
0.169990 0.171278 0.0
0.095743 0.096583 0.0
0.012540 0.012642 0.0
0.000088 0.000089 0.0
0.000000 0.000000 0.0
0.000000 0.000000 0.0
0.000000 0.000000 0.0
0.000000 0.000000 0.0
0.000000 0.000000 0.0
0.000000 0.000000 0.0
0.000000 0.000000 0.0
0.000000 0.000000 0.0
0.000000 0.000000 0.0
0.000000 0.000000 0.0
0.000000 0.000000 0.0
0.000000 0.000000 0.0
0.000000 0.000000 0.0
0.000000 0.000000 0.0
0.000000 0.000000 0.0
0.000000 0.000000 0.0
0.000000 0.000000 0.0
0.000036 0.000022 0.0
0.002751 0.001953 0.0
0.023772 0.018895 0.0
0.059738 0.050716 0.0
0.095819 0.085141 0.0
0.128292 0.118511 0.0
0.154146 0.147086 0.0
0.170433 0.166595 0.0
0.171278 0.169990 0.0
0.132041 0.132041 0.0
0.036742 0.036830 0.0
0.000930 0.000933 0.0
0.000000 0.000000 0.0
0.000000 0.000000 0.0
0.000000 0.000000 0.0
0.000000 0.000000 0.0
0.000000 0.000000 0.0
0.000000 0.000000 0.0
0.000000 0.000000 0.0
0.000000 0.000000 0.0
0.000000 0.000000 0.0
0.000000 0.000000 0.0
0.000000 0.000000 0.0
0.000000 0.000000 0.0
0.000000 0.000000 0.0
0.000000 0.000000 0.0
0.000000 0.000000 0.0
0.000000 0.000000 0.0
0.000000 0.000000 0.0
0.000000 0.000000 0.0
0.000000 0.000000 0.0
0.000010 0.000007 0.0
0.001533 0.001239 0.0
0.015406 0.013386 0.0
0.044588 0.040565 0.0
0.076377 0.071755 0.0
0.102353 0.098521 0.0
0.114406 0.112097 0.0
0.096583 0.095743 0.0
0.036830 0.036742 0.0
0.001688 0.001688 0.0
0.000001 0.000001 0.0
0.000000 0.000000 0.0
0.000000 0.000000 0.0
0.000000 0.000000 0.0
0.000000 0.000000 0.0
0.000000 0.000000 0.0
0.000000 0.000000 0.0
0.000000 0.000000 0.0
0.000000 0.000000 0.0
0.000000 0.000000 0.0
0.000000 0.000000 0.0
0.000000 0.000000 0.0
0.000000 0.000000 0.0
0.000000 0.000000 0.0
0.000000 0.000000 0.0
0.000000 0.000000 0.0
0.000000 0.000000 0.0
0.000000 0.000000 0.0
0.000000 0.000000 0.0
0.000000 0.000000 0.0
0.000000 0.000000 0.0
0.000003 0.000002 0.0
0.000463 0.000405 0.0
0.005242 0.004813 0.0
0.016924 0.016035 0.0
0.028109 0.027211 0.0
0.027873 0.027384 0.0
0.012642 0.012540 0.0
0.000933 0.000930 0.0
0.000001 0.000001 0.0
0.000000 0.000000 0.0
0.000000 0.000000 0.0
0.000000 0.000000 0.0
0.000000 0.000000 0.0
0.000000 0.000000 0.0
0.000000 0.000000 0.0
0.000000 0.000000 0.0
0.000000 0.000000 0.0
0.000000 0.000000 0.0
0.000000 0.000000 0.0
0.000000 0.000000 0.0
0.000000 0.000000 0.0
0.000000 0.000000 0.0
0.000000 0.000000 0.0
0.000000 0.000000 0.0
0.000000 0.000000 0.0
0.000000 0.000000 0.0
0.000000 0.000000 0.0
0.000000 0.000000 0.0
0.000000 0.000000 0.0
0.000000 0.000000 0.0
0.000000 0.000000 0.0
0.000000 0.000000 0.0
0.000032 0.000029 0.0
0.000367 0.000348 0.0
0.000940 0.000912 0.0
0.000703 0.000691 0.0
0.000089 0.000088 0.0
0.000000 0.000000 0.0
0.000000 0.000000 0.0
0.000000 0.000000 0.0
0.000000 0.000000 0.0
0.000000 0.000000 0.0
0.000000 0.000000 0.0
0.000000 0.000000 0.0
0.000000 0.000000 0.0
0.000000 0.000000 0.0
0.000000 0.000000 0.0
0.000000 0.000000 0.0
0.000000 0.000000 0.0
0.000000 0.000000 0.0
0.000000 0.000000 0.0
0.000000 0.000000 0.0
0.000000 0.000000 0.0
0.000000 0.000000 0.0
0.000000 0.000000 0.0
0.000000 0.000000 0.0
0.000000 0.000000 0.0
0.000000 0.000000 0.0
0.000000 0.000000 0.0
0.000000 0.000000 0.0
0.000000 0.000000 0.0
0.000000 0.000000 0.0
0.000000 0.000000 0.0
0.000000 0.000000 0.0
0.000000 0.000000 0.0
0.000000 0.000000 0.0
0.000000 0.000000 0.0
0.000000 0.000000 0.0
0.000000 0.000000 0.0
0.000000 0.000000 0.0
0.000000 0.000000 0.0
0.000000 0.000000 0.0
0.000000 0.000000 0.0
0.000000 0.000000 0.0
0.000000 0.000000 0.0
0.000000 0.000000 0.0
0.000000 0.000000 0.0
0.000000 0.000000 0.0
0.000000 0.000000 0.0
0.000000 0.000000 0.0
0.000000 0.000000 0.0
0.000000 0.000000 0.0
0.000000 0.000000 0.0
0.000000 0.000000 0.0
0.000000 0.000000 0.0
0.000000 0.000000 0.0
0.000000 0.000000 0.0
0.000000 0.000000 0.0
0.000000 0.000000 0.0
0.000000 0.000000 0.0
0.000000 0.000000 0.0
0.000000 0.000000 0.0
0.000000 0.000000 0.0
0.000000 0.000000 0.0
0.000000 0.000000 0.0
0.000000 0.000000 0.0
0.000000 0.000000 0.0
0.000000 0.000000 0.0
0.000000 0.000000 0.0
0.000000 0.000000 0.0
0.000000 0.000000 0.0
0.000000 0.000000 0.0
0.000000 0.000000 0.0
0.000000 0.000000 0.0
0.000000 0.000000 0.0
0.000000 0.000000 0.0
0.000000 0.000000 0.0
0.000000 0.000000 0.0
0.000000 0.000000 0.0
0.000000 0.000000 0.0
0.000000 0.000000 0.0
0.000000 0.000000 0.0
0.000000 0.000000 0.0
0.000000 0.000000 0.0
0.000000 0.000000 0.0
0.000000 0.000000 0.0
0.000000 0.000000 0.0
0.000000 0.000000 0.0
0.000000 0.000000 0.0
0.000000 0.000000 0.0
0.000000 0.000000 0.0
0.000000 0.000000 0.0
0.000000 0.000000 0.0
0.000000 0.000000 0.0
0.000000 0.000000 0.0
0.000000 0.000000 0.0
0.000000 0.000000 0.0
0.000000 0.000000 0.0
0.000000 0.000000 0.0
0.000000 0.000000 0.0
0.000000 0.000000 0.0
0.000000 0.000000 0.0
0.000000 0.000000 0.0
0.000000 0.000000 0.0
</DataArray>
   </CellData>
  </Piece>
 </UnstructuredGrid>
</VTKFile>
