<VTKFile type="UnstructuredGrid" version="0.1" byte_order="LittleEndian">
 <UnstructuredGrid>
  <Piece NumberOfPoints="961" NumberOfCells="900">
   <Points>
    <DataArray name="Position" type="Float32" NumberOfComponents="3" format="ascii">
    0.000000 0.000000 0.0
    0.066667 0.000000 0.0
    0.133333 0.000000 0.0
    0.200000 0.000000 0.0
    0.266667 0.000000 0.0
    0.333333 0.000000 0.0
    0.400000 0.000000 0.0
    0.466667 0.000000 0.0
    0.533333 0.000000 0.0
    0.600000 0.000000 0.0
    0.666667 0.000000 0.0
    0.733333 0.000000 0.0
    0.800000 0.000000 0.0
    0.866667 0.000000 0.0
    0.933333 0.000000 0.0
    1.000000 0.000000 0.0
    1.066667 0.000000 0.0
    1.133333 0.000000 0.0
    1.200000 0.000000 0.0
    1.266667 0.000000 0.0
    1.333333 0.000000 0.0
    1.400000 0.000000 0.0
    1.466667 0.000000 0.0
    1.533333 0.000000 0.0
    1.600000 0.000000 0.0
    1.666667 0.000000 0.0
    1.733333 0.000000 0.0
    1.800000 0.000000 0.0
    1.866667 0.000000 0.0
    1.933333 0.000000 0.0
    2.000000 0.000000 0.0
    0.000000 0.066667 0.0
    0.066667 0.066667 0.0
    0.133333 0.066667 0.0
    0.200000 0.066667 0.0
    0.266667 0.066667 0.0
    0.333333 0.066667 0.0
    0.400000 0.066667 0.0
    0.466667 0.066667 0.0
    0.533333 0.066667 0.0
    0.600000 0.066667 0.0
    0.666667 0.066667 0.0
    0.733333 0.066667 0.0
    0.800000 0.066667 0.0
    0.866667 0.066667 0.0
    0.933333 0.066667 0.0
    1.000000 0.066667 0.0
    1.066667 0.066667 0.0
    1.133333 0.066667 0.0
    1.200000 0.066667 0.0
    1.266667 0.066667 0.0
    1.333333 0.066667 0.0
    1.400000 0.066667 0.0
    1.466667 0.066667 0.0
    1.533333 0.066667 0.0
    1.600000 0.066667 0.0
    1.666667 0.066667 0.0
    1.733333 0.066667 0.0
    1.800000 0.066667 0.0
    1.866667 0.066667 0.0
    1.933333 0.066667 0.0
    2.000000 0.066667 0.0
    0.000000 0.133333 0.0
    0.066667 0.133333 0.0
    0.133333 0.133333 0.0
    0.200000 0.133333 0.0
    0.266667 0.133333 0.0
    0.333333 0.133333 0.0
    0.400000 0.133333 0.0
    0.466667 0.133333 0.0
    0.533333 0.133333 0.0
    0.600000 0.133333 0.0
    0.666667 0.133333 0.0
    0.733333 0.133333 0.0
    0.800000 0.133333 0.0
    0.866667 0.133333 0.0
    0.933333 0.133333 0.0
    1.000000 0.133333 0.0
    1.066667 0.133333 0.0
    1.133333 0.133333 0.0
    1.200000 0.133333 0.0
    1.266667 0.133333 0.0
    1.333333 0.133333 0.0
    1.400000 0.133333 0.0
    1.466667 0.133333 0.0
    1.533333 0.133333 0.0
    1.600000 0.133333 0.0
    1.666667 0.133333 0.0
    1.733333 0.133333 0.0
    1.800000 0.133333 0.0
    1.866667 0.133333 0.0
    1.933333 0.133333 0.0
    2.000000 0.133333 0.0
    0.000000 0.200000 0.0
    0.066667 0.200000 0.0
    0.133333 0.200000 0.0
    0.200000 0.200000 0.0
    0.266667 0.200000 0.0
    0.333333 0.200000 0.0
    0.400000 0.200000 0.0
    0.466667 0.200000 0.0
    0.533333 0.200000 0.0
    0.600000 0.200000 0.0
    0.666667 0.200000 0.0
    0.733333 0.200000 0.0
    0.800000 0.200000 0.0
    0.866667 0.200000 0.0
    0.933333 0.200000 0.0
    1.000000 0.200000 0.0
    1.066667 0.200000 0.0
    1.133333 0.200000 0.0
    1.200000 0.200000 0.0
    1.266667 0.200000 0.0
    1.333333 0.200000 0.0
    1.400000 0.200000 0.0
    1.466667 0.200000 0.0
    1.533333 0.200000 0.0
    1.600000 0.200000 0.0
    1.666667 0.200000 0.0
    1.733333 0.200000 0.0
    1.800000 0.200000 0.0
    1.866667 0.200000 0.0
    1.933333 0.200000 0.0
    2.000000 0.200000 0.0
    0.000000 0.266667 0.0
    0.066667 0.266667 0.0
    0.133333 0.266667 0.0
    0.200000 0.266667 0.0
    0.266667 0.266667 0.0
    0.333333 0.266667 0.0
    0.400000 0.266667 0.0
    0.466667 0.266667 0.0
    0.533333 0.266667 0.0
    0.600000 0.266667 0.0
    0.666667 0.266667 0.0
    0.733333 0.266667 0.0
    0.800000 0.266667 0.0
    0.866667 0.266667 0.0
    0.933333 0.266667 0.0
    1.000000 0.266667 0.0
    1.066667 0.266667 0.0
    1.133333 0.266667 0.0
    1.200000 0.266667 0.0
    1.266667 0.266667 0.0
    1.333333 0.266667 0.0
    1.400000 0.266667 0.0
    1.466667 0.266667 0.0
    1.533333 0.266667 0.0
    1.600000 0.266667 0.0
    1.666667 0.266667 0.0
    1.733333 0.266667 0.0
    1.800000 0.266667 0.0
    1.866667 0.266667 0.0
    1.933333 0.266667 0.0
    2.000000 0.266667 0.0
    0.000000 0.333333 0.0
    0.066667 0.333333 0.0
    0.133333 0.333333 0.0
    0.200000 0.333333 0.0
    0.266667 0.333333 0.0
    0.333333 0.333333 0.0
    0.400000 0.333333 0.0
    0.466667 0.333333 0.0
    0.533333 0.333333 0.0
    0.600000 0.333333 0.0
    0.666667 0.333333 0.0
    0.733333 0.333333 0.0
    0.800000 0.333333 0.0
    0.866667 0.333333 0.0
    0.933333 0.333333 0.0
    1.000000 0.333333 0.0
    1.066667 0.333333 0.0
    1.133333 0.333333 0.0
    1.200000 0.333333 0.0
    1.266667 0.333333 0.0
    1.333333 0.333333 0.0
    1.400000 0.333333 0.0
    1.466667 0.333333 0.0
    1.533333 0.333333 0.0
    1.600000 0.333333 0.0
    1.666667 0.333333 0.0
    1.733333 0.333333 0.0
    1.800000 0.333333 0.0
    1.866667 0.333333 0.0
    1.933333 0.333333 0.0
    2.000000 0.333333 0.0
    0.000000 0.400000 0.0
    0.066667 0.400000 0.0
    0.133333 0.400000 0.0
    0.200000 0.400000 0.0
    0.266667 0.400000 0.0
    0.333333 0.400000 0.0
    0.400000 0.400000 0.0
    0.466667 0.400000 0.0
    0.533333 0.400000 0.0
    0.600000 0.400000 0.0
    0.666667 0.400000 0.0
    0.733333 0.400000 0.0
    0.800000 0.400000 0.0
    0.866667 0.400000 0.0
    0.933333 0.400000 0.0
    1.000000 0.400000 0.0
    1.066667 0.400000 0.0
    1.133333 0.400000 0.0
    1.200000 0.400000 0.0
    1.266667 0.400000 0.0
    1.333333 0.400000 0.0
    1.400000 0.400000 0.0
    1.466667 0.400000 0.0
    1.533333 0.400000 0.0
    1.600000 0.400000 0.0
    1.666667 0.400000 0.0
    1.733333 0.400000 0.0
    1.800000 0.400000 0.0
    1.866667 0.400000 0.0
    1.933333 0.400000 0.0
    2.000000 0.400000 0.0
    0.000000 0.466667 0.0
    0.066667 0.466667 0.0
    0.133333 0.466667 0.0
    0.200000 0.466667 0.0
    0.266667 0.466667 0.0
    0.333333 0.466667 0.0
    0.400000 0.466667 0.0
    0.466667 0.466667 0.0
    0.533333 0.466667 0.0
    0.600000 0.466667 0.0
    0.666667 0.466667 0.0
    0.733333 0.466667 0.0
    0.800000 0.466667 0.0
    0.866667 0.466667 0.0
    0.933333 0.466667 0.0
    1.000000 0.466667 0.0
    1.066667 0.466667 0.0
    1.133333 0.466667 0.0
    1.200000 0.466667 0.0
    1.266667 0.466667 0.0
    1.333333 0.466667 0.0
    1.400000 0.466667 0.0
    1.466667 0.466667 0.0
    1.533333 0.466667 0.0
    1.600000 0.466667 0.0
    1.666667 0.466667 0.0
    1.733333 0.466667 0.0
    1.800000 0.466667 0.0
    1.866667 0.466667 0.0
    1.933333 0.466667 0.0
    2.000000 0.466667 0.0
    0.000000 0.533333 0.0
    0.066667 0.533333 0.0
    0.133333 0.533333 0.0
    0.200000 0.533333 0.0
    0.266667 0.533333 0.0
    0.333333 0.533333 0.0
    0.400000 0.533333 0.0
    0.466667 0.533333 0.0
    0.533333 0.533333 0.0
    0.600000 0.533333 0.0
    0.666667 0.533333 0.0
    0.733333 0.533333 0.0
    0.800000 0.533333 0.0
    0.866667 0.533333 0.0
    0.933333 0.533333 0.0
    1.000000 0.533333 0.0
    1.066667 0.533333 0.0
    1.133333 0.533333 0.0
    1.200000 0.533333 0.0
    1.266667 0.533333 0.0
    1.333333 0.533333 0.0
    1.400000 0.533333 0.0
    1.466667 0.533333 0.0
    1.533333 0.533333 0.0
    1.600000 0.533333 0.0
    1.666667 0.533333 0.0
    1.733333 0.533333 0.0
    1.800000 0.533333 0.0
    1.866667 0.533333 0.0
    1.933333 0.533333 0.0
    2.000000 0.533333 0.0
    0.000000 0.600000 0.0
    0.066667 0.600000 0.0
    0.133333 0.600000 0.0
    0.200000 0.600000 0.0
    0.266667 0.600000 0.0
    0.333333 0.600000 0.0
    0.400000 0.600000 0.0
    0.466667 0.600000 0.0
    0.533333 0.600000 0.0
    0.600000 0.600000 0.0
    0.666667 0.600000 0.0
    0.733333 0.600000 0.0
    0.800000 0.600000 0.0
    0.866667 0.600000 0.0
    0.933333 0.600000 0.0
    1.000000 0.600000 0.0
    1.066667 0.600000 0.0
    1.133333 0.600000 0.0
    1.200000 0.600000 0.0
    1.266667 0.600000 0.0
    1.333333 0.600000 0.0
    1.400000 0.600000 0.0
    1.466667 0.600000 0.0
    1.533333 0.600000 0.0
    1.600000 0.600000 0.0
    1.666667 0.600000 0.0
    1.733333 0.600000 0.0
    1.800000 0.600000 0.0
    1.866667 0.600000 0.0
    1.933333 0.600000 0.0
    2.000000 0.600000 0.0
    0.000000 0.666667 0.0
    0.066667 0.666667 0.0
    0.133333 0.666667 0.0
    0.200000 0.666667 0.0
    0.266667 0.666667 0.0
    0.333333 0.666667 0.0
    0.400000 0.666667 0.0
    0.466667 0.666667 0.0
    0.533333 0.666667 0.0
    0.600000 0.666667 0.0
    0.666667 0.666667 0.0
    0.733333 0.666667 0.0
    0.800000 0.666667 0.0
    0.866667 0.666667 0.0
    0.933333 0.666667 0.0
    1.000000 0.666667 0.0
    1.066667 0.666667 0.0
    1.133333 0.666667 0.0
    1.200000 0.666667 0.0
    1.266667 0.666667 0.0
    1.333333 0.666667 0.0
    1.400000 0.666667 0.0
    1.466667 0.666667 0.0
    1.533333 0.666667 0.0
    1.600000 0.666667 0.0
    1.666667 0.666667 0.0
    1.733333 0.666667 0.0
    1.800000 0.666667 0.0
    1.866667 0.666667 0.0
    1.933333 0.666667 0.0
    2.000000 0.666667 0.0
    0.000000 0.733333 0.0
    0.066667 0.733333 0.0
    0.133333 0.733333 0.0
    0.200000 0.733333 0.0
    0.266667 0.733333 0.0
    0.333333 0.733333 0.0
    0.400000 0.733333 0.0
    0.466667 0.733333 0.0
    0.533333 0.733333 0.0
    0.600000 0.733333 0.0
    0.666667 0.733333 0.0
    0.733333 0.733333 0.0
    0.800000 0.733333 0.0
    0.866667 0.733333 0.0
    0.933333 0.733333 0.0
    1.000000 0.733333 0.0
    1.066667 0.733333 0.0
    1.133333 0.733333 0.0
    1.200000 0.733333 0.0
    1.266667 0.733333 0.0
    1.333333 0.733333 0.0
    1.400000 0.733333 0.0
    1.466667 0.733333 0.0
    1.533333 0.733333 0.0
    1.600000 0.733333 0.0
    1.666667 0.733333 0.0
    1.733333 0.733333 0.0
    1.800000 0.733333 0.0
    1.866667 0.733333 0.0
    1.933333 0.733333 0.0
    2.000000 0.733333 0.0
    0.000000 0.800000 0.0
    0.066667 0.800000 0.0
    0.133333 0.800000 0.0
[...]
   <CellData Vectors="vectors">
<DataArray type="Float32" Name="cellCenteredVelocity" NumberOfComponents="3" format="ascii">
0.006566 0.006566 0.0
0.012178 0.006315 0.0
0.017678 0.006247 0.0
0.023079 0.006268 0.0
0.028389 0.006325 0.0
0.033610 0.006404 0.0
0.038735 0.006499 0.0
0.043754 0.006612 0.0
0.048651 0.006747 0.0
0.053401 0.006909 0.0
0.057975 0.007106 0.0
0.062330 0.007348 0.0
0.066403 0.007655 0.0
0.070100 0.008060 0.0
0.073254 0.008633 0.0
0.075572 0.009492 0.0
0.076639 0.010726 0.0
0.075954 0.012205 0.0
0.072438 0.013306 0.0
0.061218 0.012368 0.0
0.031915 0.006763 0.0
0.004218 0.000910 0.0
0.000032 0.000007 0.0
0.000000 0.000000 0.0
0.000000 0.000000 0.0
0.000000 0.000000 0.0
0.000000 0.000000 0.0
0.000000 0.000000 0.0
0.000000 0.000000 0.0
0.000000 0.000000 0.0
0.006315 0.012178 0.0
0.011778 0.011778 0.0
0.017125 0.011696 0.0
0.022382 0.011743 0.0
0.027561 0.011840 0.0
0.032664 0.011965 0.0
0.037684 0.012116 0.0
0.042614 0.012295 0.0
0.047437 0.012508 0.0
0.052134 0.012762 0.0
0.056680 0.013070 0.0
0.061038 0.013450 0.0
0.065158 0.013930 0.0
0.068962 0.014561 0.0
0.072316 0.015452 0.0
0.074988 0.016779 0.0
0.076613 0.018662 0.0
0.076597 0.020871 0.0
0.073143 0.022307 0.0
0.058897 0.019610 0.0
0.024560 0.008642 0.0
0.001907 0.000691 0.0
0.000005 0.000002 0.0
0.000000 0.000000 0.0
0.000000 0.000000 0.0
0.000000 0.000000 0.0
0.000000 0.000000 0.0
0.000000 0.000000 0.0
0.000000 0.000000 0.0
0.000000 0.000000 0.0
0.006247 0.017678 0.0
0.011696 0.017125 0.0
0.017027 0.017027 0.0
0.022265 0.017100 0.0
0.027423 0.017238 0.0
0.032502 0.017413 0.0
0.037497 0.017622 0.0
0.042398 0.017868 0.0
0.047190 0.018161 0.0
0.051853 0.018511 0.0
0.056359 0.018936 0.0
0.060672 0.019458 0.0
0.064738 0.020119 0.0
0.068477 0.020988 0.0
0.071749 0.022216 0.0
0.074307 0.024046 0.0
0.075756 0.026648 0.0
0.075388 0.029687 0.0
0.070926 0.031438 0.0
0.053604 0.026238 0.0
0.018100 0.009467 0.0
0.000898 0.000486 0.0
0.000001 0.000001 0.0
0.000000 0.000000 0.0
0.000000 0.000000 0.0
0.000000 0.000000 0.0
0.000000 0.000000 0.0
0.000000 0.000000 0.0
0.000000 0.000000 0.0
0.000000 0.000000 0.0
0.006268 0.023079 0.0
0.011743 0.022382 0.0
0.017100 0.022265 0.0
0.022363 0.022363 0.0
0.027544 0.022542 0.0
0.032645 0.022766 0.0
0.037661 0.023032 0.0
0.042581 0.023347 0.0
0.047390 0.023719 0.0
0.052067 0.024165 0.0
0.056584 0.024705 0.0
0.060905 0.025369 0.0
0.064973 0.026210 0.0
0.068707 0.027316 0.0
0.071959 0.028881 0.0
0.074469 0.031223 0.0
0.075796 0.034574 0.0
0.075130 0.038522 0.0
0.069871 0.040690 0.0
0.050794 0.033086 0.0
0.015564 0.010915 0.0
0.000643 0.000466 0.0
0.000001 0.000000 0.0
0.000000 0.000000 0.0
0.000000 0.000000 0.0
0.000000 0.000000 0.0
0.000000 0.000000 0.0
0.000000 0.000000 0.0
0.000000 0.000000 0.0
0.000000 0.000000 0.0
0.006325 0.028389 0.0
0.011840 0.027561 0.0
0.017238 0.027423 0.0
0.022542 0.027544 0.0
0.027763 0.027763 0.0
0.032902 0.028036 0.0
0.037956 0.028359 0.0
0.042914 0.028740 0.0
0.047760 0.029191 0.0
0.052475 0.029730 0.0
0.057029 0.030383 0.0
0.061386 0.031187 0.0
0.065490 0.032203 0.0
0.069259 0.033540 0.0
0.072544 0.035432 0.0
0.075079 0.038272 0.0
0.076398 0.042369 0.0
0.075618 0.047253 0.0
0.069985 0.049969 0.0
0.050378 0.040549 0.0
0.015424 0.013414 0.0
0.000645 0.000581 0.0
0.000001 0.000000 0.0
0.000000 0.000000 0.0
0.000000 0.000000 0.0
0.000000 0.000000 0.0
0.000000 0.000000 0.0
0.000000 0.000000 0.0
0.000000 0.000000 0.0
0.000000 0.000000 0.0
0.006404 0.033610 0.0
0.011965 0.032664 0.0
0.017413 0.032502 0.0
0.022766 0.032645 0.0
0.028036 0.032902 0.0
0.033224 0.033224 0.0
0.038325 0.033603 0.0
0.043331 0.034050 0.0
0.048225 0.034579 0.0
0.052988 0.035210 0.0
0.057592 0.035974 0.0
0.062000 0.036914 0.0
0.066157 0.038100 0.0
0.069981 0.039661 0.0
0.073328 0.041867 0.0
0.075931 0.045184 0.0
0.077317 0.050001 0.0
0.076566 0.055819 0.0
0.070893 0.059218 0.0
0.051528 0.048715 0.0
0.016663 0.017066 0.0
0.000790 0.000838 0.0
0.000001 0.000001 0.0
0.000000 0.000000 0.0
0.000000 0.000000 0.0
0.000000 0.000000 0.0
0.000000 0.000000 0.0
0.000000 0.000000 0.0
0.000000 0.000000 0.0
0.000000 0.000000 0.0
0.006499 0.038735 0.0
0.012116 0.037684 0.0
0.017622 0.037497 0.0
0.023032 0.037661 0.0
0.028359 0.037956 0.0
0.033603 0.038325 0.0
0.038761 0.038761 0.0
0.043823 0.039273 0.0
0.048774 0.039879 0.0
0.053594 0.040601 0.0
0.058256 0.041474 0.0
0.062724 0.042547 0.0
0.066944 0.043900 0.0
0.070836 0.045677 0.0
0.074260 0.048184 0.0
0.076956 0.051953 0.0
0.078452 0.057456 0.0
0.077820 0.064191 0.0
0.072328 0.068398 0.0
0.053661 0.057543 0.0
0.018885 0.021995 0.0
0.001083 0.001308 0.0
0.000002 0.000002 0.0
0.000000 0.000000 0.0
0.000000 0.000000 0.0
0.000000 0.000000 0.0
0.000000 0.000000 0.0
0.000000 0.000000 0.0
0.000000 0.000000 0.0
0.000000 0.000000 0.0
0.006612 0.043754 0.0
0.012295 0.042614 0.0
0.017868 0.042398 0.0
0.023347 0.042581 0.0
0.028740 0.042914 0.0
0.034050 0.043331 0.0
0.039273 0.043823 0.0
0.044400 0.044400 0.0
0.049417 0.045082 0.0
0.054303 0.045895 0.0
0.059032 0.046876 0.0
0.063569 0.048079 0.0
0.067861 0.049594 0.0
0.071830 0.051580 0.0
0.075342 0.054375 0.0
0.078145 0.058572 0.0
0.079778 0.064726 0.0
0.079322 0.072351 0.0
0.074149 0.077476 0.0
0.056466 0.066946 0.0
0.021986 0.028388 0.0
0.001591 0.002134 0.0
0.000004 0.000005 0.0
0.000000 0.000000 0.0
0.000000 0.000000 0.0
0.000000 0.000000 0.0
0.000000 0.000000 0.0
0.000000 0.000000 0.0
0.000000 0.000000 0.0
0.000000 0.000000 0.0
0.006747 0.048651 0.0
0.012508 0.047437 0.0
0.018161 0.047190 0.0
0.023719 0.047390 0.0
0.029191 0.047760 0.0
0.034579 0.048225 0.0
0.039879 0.048774 0.0
0.045082 0.049417 0.0
0.050175 0.050175 0.0
0.055138 0.051077 0.0
0.059945 0.052165 0.0
0.064560 0.053497 0.0
0.068934 0.055171 0.0
0.072991 0.057360 0.0
0.076600 0.060430 0.0
0.079522 0.065031 0.0
0.081309 0.071796 0.0
0.081066 0.080282 0.0
0.076302 0.086415 0.0
0.059796 0.076824 0.0
0.025993 0.036467 0.0
0.002448 0.003577 0.0
0.000010 0.000014 0.0
0.000000 0.000000 0.0
0.000000 0.000000 0.0
0.000000 0.000000 0.0
0.000000 0.000000 0.0
0.000000 0.000000 0.0
0.000000 0.000000 0.0
0.000000 0.000000 0.0
0.006909 0.053401 0.0
0.012762 0.052134 0.0
0.018511 0.051853 0.0
0.024165 0.052067 0.0
0.029730 0.052475 0.0
0.035210 0.052988 0.0
0.040601 0.053594 0.0
0.045895 0.054303 0.0
0.051077 0.055138 0.0
0.056130 0.056130 0.0
0.061027 0.057323 0.0
0.065733 0.058783 0.0
0.070201 0.060613 0.0
0.074356 0.062999 0.0
0.078075 0.066331 0.0
0.081128 0.071310 0.0
0.083083 0.078648 0.0
0.083080 0.087960 0.0
0.078785 0.095174 0.0
0.063591 0.087054 0.0
0.030979 0.046419 0.0
0.003896 0.006096 0.0
0.000028 0.000044 0.0
0.000000 0.000000 0.0
0.000000 0.000000 0.0
0.000000 0.000000 0.0
0.000000 0.000000 0.0
0.000000 0.000000 0.0
0.000000 0.000000 0.0
0.000000 0.000000 0.0
0.007106 0.057975 0.0
0.013070 0.056680 0.0
0.018936 0.056359 0.0
0.024705 0.056584 0.0
0.030383 0.057029 0.0
0.035974 0.057592 0.0
0.041474 0.058256 0.0
0.046876 0.059032 0.0
0.052165 0.059945 0.0
0.057323 0.061027 0.0
0.062326 0.062326 0.0
0.067139 0.063912 0.0
0.071715 0.065895 0.0
0.075983 0.068472 0.0
0.079824 0.072054 0.0
0.083021 0.077386 0.0
0.085160 0.085256 0.0
0.085417 0.095357 0.0
0.081635 0.103701 0.0
0.067847 0.097495 0.0
0.037018 0.058310 0.0
0.006347 0.010476 0.0
0.000084 0.000142 0.0
0.000000 0.000000 0.0
0.000000 0.000000 0.0
0.000000 0.000000 0.0
0.000000 0.000000 0.0
0.000000 0.000000 0.0
0.000000 0.000000 0.0
0.000000 0.000000 0.0
0.007348 0.062330 0.0
0.013450 0.061038 0.0
0.019458 0.060672 0.0
0.025369 0.060905 0.0
0.031187 0.061386 0.0
0.036914 0.062000 0.0
0.042547 0.062724 0.0
0.048079 0.063569 0.0
0.053497 0.064560 0.0
0.058783 0.065733 0.0
0.063912 0.067139 0.0
0.068851 0.068851 0.0
0.073553 0.070985 0.0
0.077951 0.073747 0.0
0.081931 0.077567 0.0
0.085287 0.083225 0.0
0.087624 0.091584 0.0
0.088160 0.102433 0.0
0.084921 0.111938 0.0
0.072604 0.107981 0.0
0.044144 0.071980 0.0
0.010474 0.017954 0.0
0.000274 0.000479 0.0
0.000000 0.000000 0.0
0.000000 0.000000 0.0
0.000000 0.000000 0.0
0.000000 0.000000 0.0
0.000000 0.000000 0.0
0.000000 0.000000 0.0
0.000000 0.000000 0.0
0.007655 0.066403 0.0
0.013930 0.065158 0.0
0.020119 0.064738 0.0
0.026210 0.064973 0.0
0.032203 0.065490 0.0
0.038100 0.066157 0.0
0.043900 0.066944 0.0
0.049594 0.067861 0.0
0.055171 0.068934 0.0
0.060613 0.070201 0.0
0.065895 0.071715 0.0
0.070985 0.073553 0.0
0.075838 0.075838 0.0
0.080386 0.078781 0.0
0.084525 0.082825 0.0
0.088057 0.088782 0.0
0.090607 0.097586 0.0
0.091438 0.109137 0.0
0.088762 0.119813 0.0
0.077948 0.118333 0.0
0.052360 0.086970 0.0
0.017260 0.030194 0.0
0.000938 0.001677 0.0
0.000001 0.000002 0.0
0.000000 0.000000 0.0
0.000000 0.000000 0.0
0.000000 0.000000 0.0
0.000000 0.000000 0.0
0.000000 0.000000 0.0
0.000000 0.000000 0.0
0.008060 0.070100 0.0
0.014561 0.068962 0.0
0.020988 0.068477 0.0
0.027316 0.068707 0.0
0.033540 0.069259 0.0
0.039661 0.069981 0.0
0.045677 0.070836 0.0
0.051580 0.071830 0.0
0.057360 0.072991 0.0
0.062999 0.074356 0.0
0.068472 0.075983 0.0
0.073747 0.077951 0.0
0.078781 0.080386 0.0
0.083508 0.083508 0.0
0.087828 0.087765 0.0
0.091554 0.093993 0.0
0.094332 0.103195 0.0
0.095464 0.115399 0.0
0.093355 0.127243 0.0
0.084046 0.128358 0.0
0.061684 0.102562 0.0
0.027810 0.048540 0.0
0.003357 0.005981 0.0
0.000022 0.000040 0.0
0.000000 0.000000 0.0
0.000000 0.000000 0.0
0.000000 0.000000 0.0
0.000000 0.000000 0.0
0.000000 0.000000 0.0
0.000000 0.000000 0.0
0.008633 0.073254 0.0
0.015452 0.072316 0.0
0.022216 0.071749 0.0
0.028881 0.071959 0.0
0.035432 0.072544 0.0
0.041867 0.073328 0.0
0.048184 0.074260 0.0
0.054375 0.075342 0.0
0.060430 0.076600 0.0
0.066331 0.078075 0.0
0.072054 0.079824 0.0
0.077567 0.081931 0.0
0.082825 0.084525 0.0
0.087765 0.087828 0.0
0.092291 0.092291 0.0
0.096227 0.098765 0.0
0.099233 0.108316 0.0
0.100653 0.121124 0.0
0.099079 0.134124 0.0
0.091223 0.137869 0.0
0.072285 0.117930 0.0
0.042699 0.071730 0.0
0.012480 0.020987 0.0
0.000537 0.000900 0.0
0.000000 0.000001 0.0
0.000000 0.000000 0.0
0.000000 0.000000 0.0
0.000000 0.000000 0.0
0.000000 0.000000 0.0
0.000000 0.000000 0.0
0.009492 0.075572 0.0
0.016779 0.074988 0.0
0.024046 0.074307 0.0
0.031223 0.074469 0.0
0.038272 0.075079 0.0
0.045184 0.075931 0.0
0.051953 0.076956 0.0
0.058572 0.078145 0.0
0.065031 0.079522 0.0
0.071310 0.081128 0.0
0.077386 0.083021 0.0
0.083225 0.085287 0.0
0.088782 0.088057 0.0
0.093993 0.091554 0.0
0.098765 0.096227 0.0
0.102927 0.102927 0.0
0.106150 0.112784 0.0
0.107812 0.126154 0.0
0.106682 0.140313 0.0
0.100124 0.146698 0.0
0.084434 0.132543 0.0
0.059878 0.094965 0.0
0.032603 0.049638 0.0
0.007779 0.011445 0.0
0.000203 0.000295 0.0
0.000000 0.000000 0.0
0.000000 0.000000 0.0
0.000000 0.000000 0.0
0.000000 0.000000 0.0
0.000000 0.000000 0.0
0.010726 0.076639 0.0
0.018662 0.076613 0.0
0.026648 0.075756 0.0
0.034574 0.075796 0.0
0.042369 0.076398 0.0
0.050001 0.077317 0.0
0.057456 0.078452 0.0
0.064726 0.079778 0.0
0.071796 0.081309 0.0
0.078648 0.083083 0.0
0.085256 0.085160 0.0
0.091584 0.087624 0.0
0.097586 0.090607 0.0
0.103195 0.094332 0.0
0.108316 0.099233 0.0
0.112784 0.106150 0.0
0.116273 0.116273 0.0
0.118167 0.130169 0.0
0.117375 0.145528 0.0
0.111849 0.154631 0.0
0.098867 0.146150 0.0
0.078585 0.116904 0.0
0.055241 0.078290 0.0
0.030482 0.040535 0.0
0.006421 0.008267 0.0
0.000123 0.000157 0.0
0.000000 0.000000 0.0
0.000000 0.000000 0.0
0.000000 0.000000 0.0
0.000000 0.000000 0.0
0.012205 0.075954 0.0
0.020871 0.076597 0.0
0.029687 0.075388 0.0
0.038522 0.075130 0.0
0.047253 0.075618 0.0
0.055819 0.076566 0.0
0.064191 0.077820 0.0
0.072351 0.079322 0.0
0.080282 0.081066 0.0
0.087960 0.083080 0.0
0.095357 0.085417 0.0
0.102433 0.088160 0.0
0.109137 0.091438 0.0
0.115399 0.095464 0.0
0.121124 0.100653 0.0
0.126154 0.107812 0.0
0.130169 0.118167 0.0
0.132542 0.132542 0.0
0.132223 0.149159 0.0
0.127569 0.161174 0.0
0.116633 0.158427 0.0
0.099505 0.137220 0.0
0.079143 0.105398 0.0
0.056842 0.071402 0.0
0.029449 0.035313 0.0
0.004565 0.005371 0.0
0.000047 0.000054 0.0
0.000000 0.000000 0.0
0.000000 0.000000 0.0
0.000000 0.000000 0.0
0.013306 0.072438 0.0
0.022307 0.073143 0.0
0.031438 0.070926 0.0
0.040690 0.069871 0.0
0.049969 0.069985 0.0
0.059218 0.070893 0.0
0.068398 0.072328 0.0
0.077476 0.074149 0.0
0.086415 0.076302 0.0
0.095174 0.078785 0.0
0.103701 0.081635 0.0
0.111938 0.084921 0.0
0.119813 0.088762 0.0
0.127243 0.093355 0.0
0.134124 0.099079 0.0
0.140313 0.106682 0.0
0.145528 0.117375 0.0
0.149159 0.132223 0.0
0.150113 0.150113 0.0
0.146841 0.165238 0.0
0.137796 0.168435 0.0
0.123029 0.155252 0.0
0.104737 0.130455 0.0
0.084245 0.100900 0.0
0.058624 0.067346 0.0
0.023777 0.026642 0.0
0.001889 0.002097 0.0
0.000005 0.000006 0.0
0.000000 0.000000 0.0
0.000000 0.000000 0.0
0.012368 0.061218 0.0
0.019610 0.058897 0.0
0.026238 0.053604 0.0
0.033086 0.050794 0.0
0.040549 0.050378 0.0
0.048715 0.051528 0.0
0.057543 0.053661 0.0
0.066946 0.056466 0.0
0.076824 0.059796 0.0
0.087054 0.063591 0.0
0.097495 0.067847 0.0
0.107981 0.072604 0.0
0.118333 0.077948 0.0
0.128358 0.084046 0.0
0.137869 0.091223 0.0
0.146698 0.100124 0.0
0.154631 0.111849 0.0
0.161174 0.127569 0.0
0.165238 0.146841 0.0
0.165120 0.165120 0.0
0.159176 0.174351 0.0
0.147234 0.169338 0.0
0.131026 0.152115 0.0
0.112054 0.127848 0.0
0.088295 0.097978 0.0
0.052457 0.056895 0.0
0.011642 0.012495 0.0
0.000249 0.000266 0.0
0.000000 0.000000 0.0
0.000000 0.000000 0.0
0.006763 0.031915 0.0
0.008642 0.024560 0.0
0.009467 0.018100 0.0
0.010915 0.015564 0.0
0.013414 0.015424 0.0
0.017066 0.016663 0.0
0.021995 0.018885 0.0
0.028388 0.021986 0.0
0.036467 0.025993 0.0
0.046419 0.030979 0.0
0.058310 0.037018 0.0
0.071980 0.044144 0.0
0.086970 0.052360 0.0
0.102562 0.061684 0.0
0.117930 0.072285 0.0
0.132543 0.084434 0.0
0.146150 0.098867 0.0
0.158427 0.116633 0.0
0.168435 0.137796 0.0
0.174351 0.159176 0.0
0.174157 0.174157 0.0
0.167160 0.177243 0.0
0.154592 0.168205 0.0
0.138068 0.150348 0.0
0.116502 0.125197 0.0
0.081780 0.086526 0.0
0.029292 0.030701 0.0
0.001746 0.001824 0.0
0.000003 0.000003 0.0
0.000000 0.000000 0.0
0.000910 0.004218 0.0
0.000691 0.001907 0.0
0.000486 0.000898 0.0
0.000466 0.000643 0.0
0.000581 0.000645 0.0
0.000838 0.000790 0.0
0.001308 0.001083 0.0
0.002134 0.001591 0.0
0.003577 0.002448 0.0
0.006096 0.003896 0.0
0.010476 0.006347 0.0
0.017954 0.010474 0.0
0.030194 0.017260 0.0
0.048540 0.027810 0.0
0.071730 0.042699 0.0
0.094965 0.059878 0.0
0.116904 0.078585 0.0
0.137220 0.099505 0.0
0.155252 0.123029 0.0
0.169338 0.147234 0.0
0.177243 0.167160 0.0
0.177655 0.177655 0.0
0.171092 0.176923 0.0
0.158958 0.166420 0.0
0.140706 0.147031 0.0
0.107524 0.111478 0.0
0.046507 0.047911 0.0
0.004168 0.004283 0.0
0.000015 0.000015 0.0
0.000000 0.000000 0.0
0.000007 0.000032 0.0
0.000002 0.000005 0.0
0.000001 0.000001 0.0
0.000000 0.000001 0.0
0.000000 0.000001 0.0
0.000001 0.000001 0.0
0.000002 0.000002 0.0
0.000005 0.000004 0.0
0.000014 0.000010 0.0
0.000044 0.000028 0.0
0.000142 0.000084 0.0
0.000479 0.000274 0.0
0.001677 0.000938 0.0
0.005981 0.003357 0.0
0.020987 0.012480 0.0
0.049638 0.032603 0.0
0.078290 0.055241 0.0
0.105398 0.079143 0.0
0.130455 0.104737 0.0
0.152115 0.131026 0.0
0.168205 0.154592 0.0
0.176923 0.171092 0.0
0.177930 0.177930 0.0
0.171977 0.174979 0.0
0.158249 0.161808 0.0
0.125374 0.127943 0.0
0.053574 0.054502 0.0
0.004391 0.004460 0.0
0.000013 0.000013 0.0
0.000000 0.000000 0.0
0.000000 0.000000 0.0
0.000000 0.000000 0.0
0.000000 0.000000 0.0
0.000000 0.000000 0.0
0.000000 0.000000 0.0
0.000000 0.000000 0.0
0.000000 0.000000 0.0
0.000000 0.000000 0.0
0.000000 0.000000 0.0
0.000000 0.000000 0.0
0.000000 0.000000 0.0
0.000000 0.000000 0.0
0.000002 0.000001 0.0
0.000040 0.000022 0.0
0.000900 0.000537 0.0
0.011445 0.007779 0.0
0.040535 0.030482 0.0
0.071402 0.056842 0.0
0.100900 0.084245 0.0
0.127848 0.112054 0.0
0.150348 0.138068 0.0
0.166420 0.158958 0.0
0.174979 0.171977 0.0
0.175782 0.175782 0.0
0.166205 0.167499 0.0
0.126772 0.127953 0.0
0.040156 0.040499 0.0
0.001600 0.001613 0.0
0.000001 0.000001 0.0
0.000000 0.000000 0.0
0.000000 0.000000 0.0
0.000000 0.000000 0.0
0.000000 0.000000 0.0
0.000000 0.000000 0.0
0.000000 0.000000 0.0
0.000000 0.000000 0.0
0.000000 0.000000 0.0
0.000000 0.000000 0.0
0.000000 0.000000 0.0
0.000000 0.000000 0.0
0.000000 0.000000 0.0
0.000000 0.000000 0.0
0.000000 0.000000 0.0
0.000000 0.000000 0.0
0.000001 0.000000 0.0
0.000295 0.000203 0.0
0.008267 0.006421 0.0
0.035313 0.029449 0.0
0.067346 0.058624 0.0
0.097978 0.088295 0.0
0.125197 0.116502 0.0
0.147031 0.140706 0.0
0.161808 0.158249 0.0
0.167499 0.166205 0.0
0.154800 0.154800 0.0
0.089274 0.089526 0.0
0.011190 0.011225 0.0
0.000066 0.000066 0.0
0.000000 0.000000 0.0
0.000000 0.000000 0.0
0.000000 0.000000 0.0
0.000000 0.000000 0.0
0.000000 0.000000 0.0
0.000000 0.000000 0.0
0.000000 0.000000 0.0
0.000000 0.000000 0.0
0.000000 0.000000 0.0
0.000000 0.000000 0.0
0.000000 0.000000 0.0
0.000000 0.000000 0.0
0.000000 0.000000 0.0
0.000000 0.000000 0.0
0.000000 0.000000 0.0
0.000000 0.000000 0.0
0.000000 0.000000 0.0
0.000000 0.000000 0.0
0.000157 0.000123 0.0
0.005371 0.004565 0.0
0.026642 0.023777 0.0
0.056895 0.052457 0.0
0.086526 0.081780 0.0
0.111478 0.107524 0.0
0.127943 0.125374 0.0
0.127953 0.126772 0.0
0.089526 0.089274 0.0
0.019117 0.019117 0.0
0.000260 0.000260 0.0
0.000000 0.000000 0.0
0.000000 0.000000 0.0
0.000000 0.000000 0.0
0.000000 0.000000 0.0
0.000000 0.000000 0.0
0.000000 0.000000 0.0
0.000000 0.000000 0.0
0.000000 0.000000 0.0
0.000000 0.000000 0.0
0.000000 0.000000 0.0
0.000000 0.000000 0.0
0.000000 0.000000 0.0
0.000000 0.000000 0.0
0.000000 0.000000 0.0
0.000000 0.000000 0.0
0.000000 0.000000 0.0
0.000000 0.000000 0.0
0.000000 0.000000 0.0
0.000000 0.000000 0.0
0.000000 0.000000 0.0
0.000054 0.000047 0.0
0.002097 0.001889 0.0
0.012495 0.011642 0.0
0.030701 0.029292 0.0
0.047911 0.046507 0.0
0.054502 0.053574 0.0
0.040499 0.040156 0.0
0.011225 0.011190 0.0
0.000260 0.000260 0.0
0.000000 0.000000 0.0
0.000000 0.000000 0.0
0.000000 0.000000 0.0
0.000000 0.000000 0.0
0.000000 0.000000 0.0
0.000000 0.000000 0.0
0.000000 0.000000 0.0
0.000000 0.000000 0.0
0.000000 0.000000 0.0
0.000000 0.000000 0.0
0.000000 0.000000 0.0
0.000000 0.000000 0.0
0.000000 0.000000 0.0
0.000000 0.000000 0.0
0.000000 0.000000 0.0
0.000000 0.000000 0.0
0.000000 0.000000 0.0
0.000000 0.000000 0.0
0.000000 0.000000 0.0
0.000000 0.000000 0.0
0.000000 0.000000 0.0
0.000000 0.000000 0.0
0.000006 0.000005 0.0
0.000266 0.000249 0.0
0.001824 0.001746 0.0
0.004283 0.004168 0.0
0.004460 0.004391 0.0
0.001613 0.001600 0.0
0.000066 0.000066 0.0
0.000000 0.000000 0.0
0.000000 0.000000 0.0
0.000000 0.000000 0.0
0.000000 0.000000 0.0
0.000000 0.000000 0.0
0.000000 0.000000 0.0
0.000000 0.000000 0.0
0.000000 0.000000 0.0
0.000000 0.000000 0.0
0.000000 0.000000 0.0
0.000000 0.000000 0.0
0.000000 0.000000 0.0
0.000000 0.000000 0.0
0.000000 0.000000 0.0
0.000000 0.000000 0.0
0.000000 0.000000 0.0
0.000000 0.000000 0.0
0.000000 0.000000 0.0
0.000000 0.000000 0.0
0.000000 0.000000 0.0
0.000000 0.000000 0.0
0.000000 0.000000 0.0
0.000000 0.000000 0.0
0.000000 0.000000 0.0
0.000000 0.000000 0.0
0.000003 0.000003 0.0
0.000015 0.000015 0.0
0.000013 0.000013 0.0
0.000001 0.000001 0.0
0.000000 0.000000 0.0
0.000000 0.000000 0.0
0.000000 0.000000 0.0
0.000000 0.000000 0.0
0.000000 0.000000 0.0
0.000000 0.000000 0.0
0.000000 0.000000 0.0
0.000000 0.000000 0.0
0.000000 0.000000 0.0
0.000000 0.000000 0.0
0.000000 0.000000 0.0
0.000000 0.000000 0.0
0.000000 0.000000 0.0
0.000000 0.000000 0.0
0.000000 0.000000 0.0
0.000000 0.000000 0.0
0.000000 0.000000 0.0
0.000000 0.000000 0.0
0.000000 0.000000 0.0
0.000000 0.000000 0.0
0.000000 0.000000 0.0
0.000000 0.000000 0.0
0.000000 0.000000 0.0
0.000000 0.000000 0.0
0.000000 0.000000 0.0
0.000000 0.000000 0.0
0.000000 0.000000 0.0
0.000000 0.000000 0.0
0.000000 0.000000 0.0
0.000000 0.000000 0.0
0.000000 0.000000 0.0
0.000000 0.000000 0.0
0.000000 0.000000 0.0
0.000000 0.000000 0.0
0.000000 0.000000 0.0
0.000000 0.000000 0.0
</DataArray>
   </CellData>
  </Piece>
 </UnstructuredGrid>
</VTKFile>
