<VTKFile type="UnstructuredGrid" version="0.1" byte_order="LittleEndian">
 <UnstructuredGrid>
  <Piece NumberOfPoints="961" NumberOfCells="900">
   <Points>
    <DataArray name="Position" type="Float32" NumberOfComponents="3" format="ascii">
    0.000000 0.000000 0.0
    0.066667 0.000000 0.0
    0.133333 0.000000 0.0
    0.200000 0.000000 0.0
    0.266667 0.000000 0.0
    0.333333 0.000000 0.0
    0.400000 0.000000 0.0
    0.466667 0.000000 0.0
    0.533333 0.000000 0.0
    0.600000 0.000000 0.0
    0.666667 0.000000 0.0
    0.733333 0.000000 0.0
    0.800000 0.000000 0.0
    0.866667 0.000000 0.0
    0.933333 0.000000 0.0
    1.000000 0.000000 0.0
    1.066667 0.000000 0.0
    1.133333 0.000000 0.0
    1.200000 0.000000 0.0
    1.266667 0.000000 0.0
    1.333333 0.000000 0.0
    1.400000 0.000000 0.0
    1.466667 0.000000 0.0
    1.533333 0.000000 0.0
    1.600000 0.000000 0.0
    1.666667 0.000000 0.0
    1.733333 0.000000 0.0
    1.800000 0.000000 0.0
    1.866667 0.000000 0.0
    1.933333 0.000000 0.0
    2.000000 0.000000 0.0
    0.000000 0.066667 0.0
    0.066667 0.066667 0.0
    0.133333 0.066667 0.0
    0.200000 0.066667 0.0
    0.266667 0.066667 0.0
    0.333333 0.066667 0.0
    0.400000 0.066667 0.0
    0.466667 0.066667 0.0
    0.533333 0.066667 0.0
    0.600000 0.066667 0.0
    0.666667 0.066667 0.0
    0.733333 0.066667 0.0
    0.800000 0.066667 0.0
    0.866667 0.066667 0.0
    0.933333 0.066667 0.0
    1.000000 0.066667 0.0
    1.066667 0.066667 0.0
    1.133333 0.066667 0.0
    1.200000 0.066667 0.0
    1.266667 0.066667 0.0
    1.333333 0.066667 0.0
    1.400000 0.066667 0.0
    1.466667 0.066667 0.0
    1.533333 0.066667 0.0
    1.600000 0.066667 0.0
    1.666667 0.066667 0.0
    1.733333 0.066667 0.0
    1.800000 0.066667 0.0
    1.866667 0.066667 0.0
    1.933333 0.066667 0.0
    2.000000 0.066667 0.0
    0.000000 0.133333 0.0
    0.066667 0.133333 0.0
    0.133333 0.133333 0.0
    0.200000 0.133333 0.0
    0.266667 0.133333 0.0
    0.333333 0.133333 0.0
    0.400000 0.133333 0.0
    0.466667 0.133333 0.0
    0.533333 0.133333 0.0
    0.600000 0.133333 0.0
    0.666667 0.133333 0.0
    0.733333 0.133333 0.0
    0.800000 0.133333 0.0
    0.866667 0.133333 0.0
    0.933333 0.133333 0.0
    1.000000 0.133333 0.0
    1.066667 0.133333 0.0
    1.133333 0.133333 0.0
    1.200000 0.133333 0.0
    1.266667 0.133333 0.0
    1.333333 0.133333 0.0
    1.400000 0.133333 0.0
    1.466667 0.133333 0.0
    1.533333 0.133333 0.0
    1.600000 0.133333 0.0
    1.666667 0.133333 0.0
    1.733333 0.133333 0.0
    1.800000 0.133333 0.0
    1.866667 0.133333 0.0
    1.933333 0.133333 0.0
    2.000000 0.133333 0.0
    0.000000 0.200000 0.0
    0.066667 0.200000 0.0
    0.133333 0.200000 0.0
    0.200000 0.200000 0.0
    0.266667 0.200000 0.0
    0.333333 0.200000 0.0
    0.400000 0.200000 0.0
    0.466667 0.200000 0.0
    0.533333 0.200000 0.0
    0.600000 0.200000 0.0
    0.666667 0.200000 0.0
    0.733333 0.200000 0.0
    0.800000 0.200000 0.0
    0.866667 0.200000 0.0
    0.933333 0.200000 0.0
    1.000000 0.200000 0.0
    1.066667 0.200000 0.0
    1.133333 0.200000 0.0
    1.200000 0.200000 0.0
    1.266667 0.200000 0.0
    1.333333 0.200000 0.0
    1.400000 0.200000 0.0
    1.466667 0.200000 0.0
    1.533333 0.200000 0.0
    1.600000 0.200000 0.0
    1.666667 0.200000 0.0
    1.733333 0.200000 0.0
    1.800000 0.200000 0.0
    1.866667 0.200000 0.0
    1.933333 0.200000 0.0
    2.000000 0.200000 0.0
    0.000000 0.266667 0.0
    0.066667 0.266667 0.0
    0.133333 0.266667 0.0
    0.200000 0.266667 0.0
    0.266667 0.266667 0.0
    0.333333 0.266667 0.0
    0.400000 0.266667 0.0
    0.466667 0.266667 0.0
    0.533333 0.266667 0.0
    0.600000 0.266667 0.0
    0.666667 0.266667 0.0
    0.733333 0.266667 0.0
    0.800000 0.266667 0.0
    0.866667 0.266667 0.0
    0.933333 0.266667 0.0
    1.000000 0.266667 0.0
    1.066667 0.266667 0.0
    1.133333 0.266667 0.0
    1.200000 0.266667 0.0
    1.266667 0.266667 0.0
    1.333333 0.266667 0.0
    1.400000 0.266667 0.0
    1.466667 0.266667 0.0
    1.533333 0.266667 0.0
    1.600000 0.266667 0.0
    1.666667 0.266667 0.0
    1.733333 0.266667 0.0
    1.800000 0.266667 0.0
    1.866667 0.266667 0.0
    1.933333 0.266667 0.0
    2.000000 0.266667 0.0
    0.000000 0.333333 0.0
    0.066667 0.333333 0.0
    0.133333 0.333333 0.0
    0.200000 0.333333 0.0
    0.266667 0.333333 0.0
    0.333333 0.333333 0.0
    0.400000 0.333333 0.0
    0.466667 0.333333 0.0
    0.533333 0.333333 0.0
    0.600000 0.333333 0.0
    0.666667 0.333333 0.0
    0.733333 0.333333 0.0
    0.800000 0.333333 0.0
    0.866667 0.333333 0.0
    0.933333 0.333333 0.0
    1.000000 0.333333 0.0
    1.066667 0.333333 0.0
    1.133333 0.333333 0.0
    1.200000 0.333333 0.0
    1.266667 0.333333 0.0
    1.333333 0.333333 0.0
    1.400000 0.333333 0.0
    1.466667 0.333333 0.0
    1.533333 0.333333 0.0
    1.600000 0.333333 0.0
    1.666667 0.333333 0.0
    1.733333 0.333333 0.0
    1.800000 0.333333 0.0
    1.866667 0.333333 0.0
    1.933333 0.333333 0.0
    2.000000 0.333333 0.0
    0.000000 0.400000 0.0
    0.066667 0.400000 0.0
    0.133333 0.400000 0.0
    0.200000 0.400000 0.0
    0.266667 0.400000 0.0
    0.333333 0.400000 0.0
    0.400000 0.400000 0.0
    0.466667 0.400000 0.0
    0.533333 0.400000 0.0
    0.600000 0.400000 0.0
    0.666667 0.400000 0.0
    0.733333 0.400000 0.0
    0.800000 0.400000 0.0
    0.866667 0.400000 0.0
    0.933333 0.400000 0.0
    1.000000 0.400000 0.0
    1.066667 0.400000 0.0
    1.133333 0.400000 0.0
    1.200000 0.400000 0.0
    1.266667 0.400000 0.0
    1.333333 0.400000 0.0
    1.400000 0.400000 0.0
    1.466667 0.400000 0.0
    1.533333 0.400000 0.0
    1.600000 0.400000 0.0
    1.666667 0.400000 0.0
    1.733333 0.400000 0.0
    1.800000 0.400000 0.0
    1.866667 0.400000 0.0
    1.933333 0.400000 0.0
    2.000000 0.400000 0.0
    0.000000 0.466667 0.0
    0.066667 0.466667 0.0
    0.133333 0.466667 0.0
    0.200000 0.466667 0.0
    0.266667 0.466667 0.0
    0.333333 0.466667 0.0
    0.400000 0.466667 0.0
    0.466667 0.466667 0.0
    0.533333 0.466667 0.0
    0.600000 0.466667 0.0
    0.666667 0.466667 0.0
    0.733333 0.466667 0.0
    0.800000 0.466667 0.0
    0.866667 0.466667 0.0
    0.933333 0.466667 0.0
    1.000000 0.466667 0.0
    1.066667 0.466667 0.0
    1.133333 0.466667 0.0
    1.200000 0.466667 0.0
    1.266667 0.466667 0.0
    1.333333 0.466667 0.0
    1.400000 0.466667 0.0
    1.466667 0.466667 0.0
    1.533333 0.466667 0.0
    1.600000 0.466667 0.0
    1.666667 0.466667 0.0
    1.733333 0.466667 0.0
    1.800000 0.466667 0.0
    1.866667 0.466667 0.0
    1.933333 0.466667 0.0
    2.000000 0.466667 0.0
    0.000000 0.533333 0.0
    0.066667 0.533333 0.0
    0.133333 0.533333 0.0
    0.200000 0.533333 0.0
    0.266667 0.533333 0.0
    0.333333 0.533333 0.0
    0.400000 0.533333 0.0
    0.466667 0.533333 0.0
    0.533333 0.533333 0.0
    0.600000 0.533333 0.0
    0.666667 0.533333 0.0
    0.733333 0.533333 0.0
    0.800000 0.533333 0.0
    0.866667 0.533333 0.0
    0.933333 0.533333 0.0
    1.000000 0.533333 0.0
    1.066667 0.533333 0.0
    1.133333 0.533333 0.0
    1.200000 0.533333 0.0
    1.266667 0.533333 0.0
    1.333333 0.533333 0.0
    1.400000 0.533333 0.0
    1.466667 0.533333 0.0
    1.533333 0.533333 0.0
    1.600000 0.533333 0.0
    1.666667 0.533333 0.0
    1.733333 0.533333 0.0
    1.800000 0.533333 0.0
    1.866667 0.533333 0.0
    1.933333 0.533333 0.0
    2.000000 0.533333 0.0
    0.000000 0.600000 0.0
    0.066667 0.600000 0.0
    0.133333 0.600000 0.0
    0.200000 0.600000 0.0
    0.266667 0.600000 0.0
    0.333333 0.600000 0.0
    0.400000 0.600000 0.0
    0.466667 0.600000 0.0
    0.533333 0.600000 0.0
    0.600000 0.600000 0.0
    0.666667 0.600000 0.0
    0.733333 0.600000 0.0
    0.800000 0.600000 0.0
    0.866667 0.600000 0.0
    0.933333 0.600000 0.0
    1.000000 0.600000 0.0
    1.066667 0.600000 0.0
    1.133333 0.600000 0.0
    1.200000 0.600000 0.0
    1.266667 0.600000 0.0
    1.333333 0.600000 0.0
    1.400000 0.600000 0.0
    1.466667 0.600000 0.0
    1.533333 0.600000 0.0
    1.600000 0.600000 0.0
    1.666667 0.600000 0.0
    1.733333 0.600000 0.0
    1.800000 0.600000 0.0
    1.866667 0.600000 0.0
    1.933333 0.600000 0.0
    2.000000 0.600000 0.0
    0.000000 0.666667 0.0
    0.066667 0.666667 0.0
    0.133333 0.666667 0.0
    0.200000 0.666667 0.0
    0.266667 0.666667 0.0
    0.333333 0.666667 0.0
    0.400000 0.666667 0.0
    0.466667 0.666667 0.0
    0.533333 0.666667 0.0
    0.600000 0.666667 0.0
    0.666667 0.666667 0.0
    0.733333 0.666667 0.0
    0.800000 0.666667 0.0
    0.866667 0.666667 0.0
    0.933333 0.666667 0.0
    1.000000 0.666667 0.0
    1.066667 0.666667 0.0
    1.133333 0.666667 0.0
    1.200000 0.666667 0.0
    1.266667 0.666667 0.0
    1.333333 0.666667 0.0
    1.400000 0.666667 0.0
    1.466667 0.666667 0.0
    1.533333 0.666667 0.0
    1.600000 0.666667 0.0
    1.666667 0.666667 0.0
    1.733333 0.666667 0.0
    1.800000 0.666667 0.0
    1.866667 0.666667 0.0
    1.933333 0.666667 0.0
    2.000000 0.666667 0.0
    0.000000 0.733333 0.0
    0.066667 0.733333 0.0
    0.133333 0.733333 0.0
    0.200000 0.733333 0.0
    0.266667 0.733333 0.0
    0.333333 0.733333 0.0
    0.400000 0.733333 0.0
    0.466667 0.733333 0.0
    0.533333 0.733333 0.0
    0.600000 0.733333 0.0
    0.666667 0.733333 0.0
    0.733333 0.733333 0.0
    0.800000 0.733333 0.0
    0.866667 0.733333 0.0
    0.933333 0.733333 0.0
    1.000000 0.733333 0.0
    1.066667 0.733333 0.0
    1.133333 0.733333 0.0
    1.200000 0.733333 0.0
    1.266667 0.733333 0.0
    1.333333 0.733333 0.0
    1.400000 0.733333 0.0
    1.466667 0.733333 0.0
    1.533333 0.733333 0.0
    1.600000 0.733333 0.0
    1.666667 0.733333 0.0
    1.733333 0.733333 0.0
    1.800000 0.733333 0.0
    1.866667 0.733333 0.0
    1.933333 0.733333 0.0
    2.000000 0.733333 0.0
    0.000000 0.800000 0.0
    0.066667 0.800000 0.0
    0.133333 0.800000 0.0
[...]
   <CellData Vectors="vectors">
<DataArray type="Float32" Name="cellCenteredVelocity" NumberOfComponents="3" format="ascii">
0.008598 0.008598 0.0
0.016634 0.008035 0.0
0.024459 0.007953 0.0
0.032119 0.008001 0.0
0.039631 0.008095 0.0
0.046993 0.008218 0.0
0.054191 0.008368 0.0
0.061196 0.008550 0.0
0.067971 0.008770 0.0
0.074465 0.009041 0.0
0.080608 0.009378 0.0
0.086299 0.009806 0.0
0.091388 0.010373 0.0
0.095619 0.011164 0.0
0.098489 0.012396 0.0
0.099126 0.014308 0.0
0.096243 0.016606 0.0
0.086441 0.017546 0.0
0.058320 0.013088 0.0
0.015081 0.003534 0.0
0.000443 0.000106 0.0
0.000000 0.000000 0.0
0.000000 0.000000 0.0
0.000000 0.000000 0.0
0.000000 0.000000 0.0
0.000000 0.000000 0.0
0.000000 0.000000 0.0
0.000000 0.000000 0.0
0.000000 0.000000 0.0
0.000000 0.000000 0.0
0.008035 0.016634 0.0
0.015684 0.015684 0.0
0.023119 0.015590 0.0
0.030402 0.015688 0.0
0.037550 0.015853 0.0
0.044561 0.016060 0.0
0.051418 0.016310 0.0
0.058095 0.016612 0.0
0.064556 0.016979 0.0
0.070753 0.017428 0.0
0.076623 0.017986 0.0
0.082071 0.018696 0.0
0.086958 0.019630 0.0
0.091051 0.020935 0.0
0.093890 0.022961 0.0
0.094633 0.026067 0.0
0.091676 0.029602 0.0
0.079726 0.029897 0.0
0.045118 0.018735 0.0
0.007000 0.003075 0.0
0.000073 0.000033 0.0
0.000000 0.000000 0.0
0.000000 0.000000 0.0
0.000000 0.000000 0.0
0.000000 0.000000 0.0
0.000000 0.000000 0.0
0.000000 0.000000 0.0
0.000000 0.000000 0.0
0.000000 0.000000 0.0
0.000000 0.000000 0.0
0.007953 0.024459 0.0
0.015590 0.023119 0.0
0.023005 0.023005 0.0
0.030263 0.023154 0.0
0.037382 0.023389 0.0
0.044358 0.023682 0.0
0.051175 0.024035 0.0
0.057806 0.024461 0.0
0.064212 0.024977 0.0
0.070343 0.025609 0.0
0.076131 0.026394 0.0
0.081477 0.027393 0.0
0.086232 0.028708 0.0
0.090147 0.030546 0.0
0.092723 0.033409 0.0
0.093017 0.037809 0.0
0.089125 0.042767 0.0
0.074813 0.042373 0.0
0.037458 0.023984 0.0
0.004399 0.003008 0.0
0.000027 0.000019 0.0
0.000000 0.000000 0.0
0.000000 0.000000 0.0
0.000000 0.000000 0.0
0.000000 0.000000 0.0
0.000000 0.000000 0.0
0.000000 0.000000 0.0
0.000000 0.000000 0.0
0.000000 0.000000 0.0
0.000000 0.000000 0.0
0.008001 0.032119 0.0
0.015688 0.030402 0.0
0.023154 0.030263 0.0
0.030459 0.030459 0.0
0.037622 0.030764 0.0
0.044641 0.031142 0.0
0.051499 0.031596 0.0
0.058167 0.032143 0.0
0.064608 0.032807 0.0
0.070771 0.033619 0.0
0.076584 0.034627 0.0
0.081949 0.035910 0.0
0.086710 0.037600 0.0
0.090610 0.039964 0.0
0.093128 0.043651 0.0
0.093249 0.049357 0.0
0.088866 0.055836 0.0
0.073403 0.055085 0.0
0.035467 0.030430 0.0
0.003951 0.003626 0.0
0.000022 0.000021 0.0
0.000000 0.000000 0.0
0.000000 0.000000 0.0
0.000000 0.000000 0.0
0.000000 0.000000 0.0
0.000000 0.000000 0.0
0.000000 0.000000 0.0
0.000000 0.000000 0.0
0.000000 0.000000 0.0
0.000000 0.000000 0.0
0.008095 0.039631 0.0
0.015853 0.037550 0.0
0.023389 0.037382 0.0
0.030764 0.037622 0.0
0.037996 0.037996 0.0
0.045083 0.038457 0.0
0.052007 0.039012 0.0
0.058743 0.039679 0.0
0.065251 0.040487 0.0
0.071480 0.041475 0.0
0.077361 0.042703 0.0
0.082793 0.044262 0.0
0.087621 0.046317 0.0
0.091587 0.049190 0.0
0.094167 0.053672 0.0
0.094315 0.060648 0.0
0.089823 0.068683 0.0
0.074091 0.068020 0.0
0.036357 0.038342 0.0
0.004296 0.004852 0.0
0.000027 0.000031 0.0
0.000000 0.000000 0.0
0.000000 0.000000 0.0
0.000000 0.000000 0.0
0.000000 0.000000 0.0
0.000000 0.000000 0.0
0.000000 0.000000 0.0
0.000000 0.000000 0.0
0.000000 0.000000 0.0
0.000000 0.000000 0.0
0.008218 0.046993 0.0
0.016060 0.044561 0.0
0.023682 0.044358 0.0
0.031142 0.044641 0.0
0.038457 0.045083 0.0
0.045627 0.045627 0.0
0.052635 0.046281 0.0
0.059454 0.047067 0.0
0.066047 0.048018 0.0
0.072362 0.049180 0.0
0.078331 0.050622 0.0
0.083853 0.052453 0.0
0.088778 0.054863 0.0
0.092848 0.058227 0.0
0.095549 0.063470 0.0
0.095831 0.071665 0.0
0.091460 0.081260 0.0
0.075966 0.081139 0.0
0.038792 0.047709 0.0
0.005133 0.006772 0.0
0.000040 0.000054 0.0
0.000000 0.000000 0.0
0.000000 0.000000 0.0
0.000000 0.000000 0.0
0.000000 0.000000 0.0
0.000000 0.000000 0.0
0.000000 0.000000 0.0
0.000000 0.000000 0.0
0.000000 0.000000 0.0
0.000000 0.000000 0.0
0.008368 0.054191 0.0
0.016310 0.051418 0.0
0.024035 0.051175 0.0
0.031596 0.051499 0.0
0.039012 0.052007 0.0
0.046281 0.052635 0.0
0.053389 0.053389 0.0
0.060307 0.054293 0.0
0.067000 0.055385 0.0
0.073417 0.056719 0.0
0.079490 0.058373 0.0
0.085121 0.060470 0.0
0.090161 0.063226 0.0
0.094359 0.067066 0.0
0.097212 0.073036 0.0
0.097689 0.082395 0.0
0.093570 0.093541 0.0
0.078612 0.094387 0.0
0.042290 0.058544 0.0
0.006469 0.009628 0.0
0.000067 0.000103 0.0
0.000000 0.000000 0.0
0.000000 0.000000 0.0
0.000000 0.000000 0.0
0.000000 0.000000 0.0
0.000000 0.000000 0.0
0.000000 0.000000 0.0
0.000000 0.000000 0.0
0.000000 0.000000 0.0
0.000000 0.000000 0.0
0.008550 0.061196 0.0
0.016612 0.058095 0.0
0.024461 0.057806 0.0
0.032143 0.058167 0.0
0.039679 0.058743 0.0
0.047067 0.059454 0.0
0.054293 0.060307 0.0
0.061329 0.061329 0.0
0.068141 0.062564 0.0
0.074679 0.064069 0.0
0.080874 0.065932 0.0
0.086632 0.068291 0.0
0.091806 0.071385 0.0
0.096151 0.075687 0.0
0.099181 0.082350 0.0
0.099890 0.092816 0.0
0.096108 0.105496 0.0
0.081875 0.107699 0.0
0.046717 0.070886 0.0
0.008458 0.013829 0.0
0.000124 0.000209 0.0
0.000000 0.000000 0.0
0.000000 0.000000 0.0
0.000000 0.000000 0.0
0.000000 0.000000 0.0
0.000000 0.000000 0.0
0.000000 0.000000 0.0
0.000000 0.000000 0.0
0.000000 0.000000 0.0
0.000000 0.000000 0.0
0.008770 0.067971 0.0
0.016979 0.064556 0.0
0.024977 0.064212 0.0
0.032807 0.064608 0.0
0.040487 0.065251 0.0
0.048018 0.066047 0.0
0.055385 0.067000 0.0
0.062564 0.068141 0.0
0.069517 0.069517 0.0
0.076197 0.071193 0.0
0.082538 0.073264 0.0
0.088444 0.075881 0.0
0.093773 0.079307 0.0
0.098287 0.084056 0.0
0.101518 0.091380 0.0
0.102492 0.102893 0.0
0.099107 0.117084 0.0
0.085739 0.120992 0.0
0.052085 0.084745 0.0
0.011379 0.019999 0.0
0.000246 0.000446 0.0
0.000000 0.000000 0.0
0.000000 0.000000 0.0
0.000000 0.000000 0.0
0.000000 0.000000 0.0
0.000000 0.000000 0.0
0.000000 0.000000 0.0
0.000000 0.000000 0.0
0.000000 0.000000 0.0
0.000000 0.000000 0.0
0.009041 0.074465 0.0
0.017428 0.070753 0.0
0.025609 0.070343 0.0
0.033619 0.070771 0.0
0.041475 0.071480 0.0
0.049180 0.072362 0.0
0.056719 0.073417 0.0
0.064069 0.074679 0.0
0.071193 0.076197 0.0
0.078044 0.078044 0.0
0.084556 0.080322 0.0
0.090637 0.083195 0.0
0.096148 0.086946 0.0
0.100858 0.092127 0.0
0.104317 0.100076 0.0
0.105587 0.112574 0.0
0.102652 0.128246 0.0
0.090258 0.134164 0.0
0.058469 0.100044 0.0
0.015662 0.029010 0.0
0.000522 0.001000 0.0
0.000000 0.000001 0.0
0.000000 0.000000 0.0
0.000000 0.000000 0.0
0.000000 0.000000 0.0
0.000000 0.000000 0.0
0.000000 0.000000 0.0
0.000000 0.000000 0.0
0.000000 0.000000 0.0
0.000000 0.000000 0.0
0.009378 0.080608 0.0
0.017986 0.076623 0.0
0.026394 0.076131 0.0
0.034627 0.076584 0.0
0.042703 0.077361 0.0
0.050622 0.078331 0.0
0.058373 0.079490 0.0
0.065932 0.080874 0.0
0.073264 0.082538 0.0
0.080322 0.084556 0.0
0.087041 0.087041 0.0
0.093332 0.090169 0.0
0.099058 0.094239 0.0
0.103995 0.099837 0.0
0.107714 0.108375 0.0
0.109315 0.121789 0.0
0.106877 0.138900 0.0
0.095554 0.147084 0.0
0.065985 0.116571 0.0
0.021914 0.041959 0.0
0.001182 0.002340 0.0
0.000002 0.000003 0.0
0.000000 0.000000 0.0
0.000000 0.000000 0.0
0.000000 0.000000 0.0
0.000000 0.000000 0.0
0.000000 0.000000 0.0
0.000000 0.000000 0.0
0.000000 0.000000 0.0
0.000000 0.000000 0.0
0.009806 0.086299 0.0
0.018696 0.082071 0.0
0.027393 0.081477 0.0
0.035910 0.081949 0.0
0.044262 0.082793 0.0
0.052453 0.083853 0.0
0.060470 0.085121 0.0
0.068291 0.086632 0.0
0.075881 0.088444 0.0
0.083195 0.090637 0.0
0.090169 0.093332 0.0
0.096713 0.096713 0.0
0.102695 0.101097 0.0
0.107900 0.107097 0.0
0.111916 0.116184 0.0
0.113887 0.130441 0.0
0.111993 0.148938 0.0
0.101819 0.159592 0.0
0.074803 0.133957 0.0
0.030896 0.059907 0.0
0.002826 0.005670 0.0
0.000011 0.000022 0.0
0.000000 0.000000 0.0
0.000000 0.000000 0.0
0.000000 0.000000 0.0
0.000000 0.000000 0.0
0.000000 0.000000 0.0
0.000000 0.000000 0.0
0.000000 0.000000 0.0
0.000000 0.000000 0.0
0.010373 0.091388 0.0
0.019630 0.086958 0.0
0.028708 0.086232 0.0
0.037600 0.086710 0.0
0.046317 0.087621 0.0
0.054863 0.088778 0.0
0.063226 0.090161 0.0
0.071385 0.091806 0.0
0.079307 0.093773 0.0
0.086946 0.096148 0.0
0.094239 0.099058 0.0
0.101097 0.102695 0.0
0.107391 0.107391 0.0
0.112913 0.113781 0.0
0.117272 0.123375 0.0
0.119654 0.138392 0.0
0.118343 0.158213 0.0
0.109380 0.171488 0.0
0.085190 0.151687 0.0
0.043383 0.083193 0.0
0.007054 0.013971 0.0
0.000085 0.000170 0.0
0.000000 0.000000 0.0
0.000000 0.000000 0.0
0.000000 0.000000 0.0
0.000000 0.000000 0.0
0.000000 0.000000 0.0
0.000000 0.000000 0.0
0.000000 0.000000 0.0
0.000000 0.000000 0.0
0.011164 0.095619 0.0
0.020935 0.091051 0.0
0.030546 0.090147 0.0
0.039964 0.090610 0.0
0.049190 0.091587 0.0
0.058227 0.092848 0.0
0.067066 0.094359 0.0
0.075687 0.096151 0.0
0.084056 0.098287 0.0
0.092127 0.100858 0.0
0.099837 0.103995 0.0
0.107097 0.107900 0.0
0.113781 0.112913 0.0
0.119685 0.119685 0.0
0.124439 0.129746 0.0
0.127266 0.145438 0.0
0.126558 0.166509 0.0
0.118823 0.182516 0.0
0.097649 0.169155 0.0
0.059953 0.110462 0.0
0.017852 0.033580 0.0
0.000787 0.001491 0.0
0.000001 0.000001 0.0
0.000000 0.000000 0.0
0.000000 0.000000 0.0
0.000000 0.000000 0.0
0.000000 0.000000 0.0
0.000000 0.000000 0.0
0.000000 0.000000 0.0
0.000000 0.000000 0.0
0.012396 0.098489 0.0
0.022961 0.093890 0.0
0.033409 0.092723 0.0
0.043651 0.093128 0.0
0.053672 0.094167 0.0
0.063470 0.095549 0.0
0.073036 0.097212 0.0
0.082350 0.099181 0.0
0.091380 0.101518 0.0
0.100076 0.104317 0.0
0.108375 0.107714 0.0
0.116184 0.111916 0.0
0.123375 0.117272 0.0
0.129746 0.124439 0.0
0.134941 0.134941 0.0
0.138215 0.151224 0.0
0.138052 0.173483 0.0
0.131444 0.192335 0.0
0.113289 0.185745 0.0
0.081215 0.138714 0.0
0.042250 0.070379 0.0
0.008438 0.013697 0.0
0.000151 0.000243 0.0
0.000000 0.000000 0.0
0.000000 0.000000 0.0
0.000000 0.000000 0.0
0.000000 0.000000 0.0
0.000000 0.000000 0.0
0.000000 0.000000 0.0
0.000000 0.000000 0.0
0.014308 0.099126 0.0
0.026067 0.094633 0.0
0.037809 0.093017 0.0
0.049357 0.093249 0.0
0.060648 0.094315 0.0
0.071665 0.095831 0.0
0.082395 0.097689 0.0
0.092816 0.099890 0.0
0.102893 0.102492 0.0
0.112574 0.105587 0.0
0.121789 0.109315 0.0
0.130441 0.113887 0.0
0.138392 0.119654 0.0
0.145438 0.127266 0.0
0.151224 0.138215 0.0
0.155020 0.155020 0.0
0.155363 0.178426 0.0
0.149670 0.200324 0.0
0.134135 0.200871 0.0
0.107278 0.166062 0.0
0.074064 0.109737 0.0
0.037413 0.051922 0.0
0.005863 0.007888 0.0
0.000062 0.000082 0.0
0.000000 0.000000 0.0
0.000000 0.000000 0.0
0.000000 0.000000 0.0
0.000000 0.000000 0.0
0.000000 0.000000 0.0
0.000000 0.000000 0.0
0.016606 0.096243 0.0
0.029602 0.091676 0.0
0.042767 0.089125 0.0
0.055836 0.088866 0.0
0.068683 0.089823 0.0
0.081260 0.091460 0.0
0.093541 0.093570 0.0
0.105496 0.096108 0.0
0.117084 0.099107 0.0
0.128246 0.102652 0.0
0.138900 0.106877 0.0
0.148938 0.111993 0.0
0.158213 0.118343 0.0
0.166509 0.126558 0.0
0.173483 0.138052 0.0
0.178426 0.155363 0.0
0.179869 0.179869 0.0
0.175401 0.205074 0.0
0.162107 0.213363 0.0
0.139141 0.191198 0.0
0.110075 0.147199 0.0
0.076099 0.095917 0.0
0.032405 0.039128 0.0
0.002918 0.003466 0.0
0.000010 0.000012 0.0
0.000000 0.000000 0.0
0.000000 0.000000 0.0
0.000000 0.000000 0.0
0.000000 0.000000 0.0
0.000000 0.000000 0.0
0.017546 0.086441 0.0
0.029897 0.079726 0.0
0.042373 0.074813 0.0
0.055085 0.073403 0.0
0.068020 0.074091 0.0
0.081139 0.075966 0.0
0.094387 0.078612 0.0
0.107699 0.081875 0.0
0.120992 0.085739 0.0
0.134164 0.090258 0.0
0.147084 0.095554 0.0
0.159592 0.101819 0.0
0.171488 0.109380 0.0
0.182516 0.118823 0.0
0.192335 0.131444 0.0
0.200324 0.149670 0.0
0.205074 0.175401 0.0
0.204035 0.204035 0.0
0.194299 0.220538 0.0
0.175055 0.211486 0.0
0.149060 0.180348 0.0
0.117237 0.137252 0.0
0.071381 0.080693 0.0
0.017115 0.019015 0.0
0.000426 0.000470 0.0
0.000000 0.000000 0.0
0.000000 0.000000 0.0
0.000000 0.000000 0.0
0.000000 0.000000 0.0
0.000000 0.000000 0.0
0.013088 0.058320 0.0
0.018735 0.045118 0.0
0.023984 0.037458 0.0
0.030430 0.035467 0.0
0.038342 0.036357 0.0
0.047709 0.038792 0.0
0.058544 0.042290 0.0
0.070886 0.046717 0.0
0.084745 0.052085 0.0
0.100044 0.058469 0.0
0.116571 0.065985 0.0
0.133957 0.074803 0.0
0.151687 0.085190 0.0
0.169155 0.097649 0.0
0.185745 0.113289 0.0
0.200871 0.134135 0.0
0.213363 0.162107 0.0
0.220538 0.194299 0.0
0.218768 0.218768 0.0
0.206367 0.222723 0.0
0.185256 0.205190 0.0
0.156431 0.171968 0.0
0.110066 0.118720 0.0
0.038678 0.041179 0.0
0.002185 0.002314 0.0
0.000003 0.000003 0.0
0.000000 0.000000 0.0
0.000000 0.000000 0.0
0.000000 0.000000 0.0
0.000000 0.000000 0.0
0.003534 0.015081 0.0
0.003075 0.007000 0.0
0.003008 0.004399 0.0
0.003626 0.003951 0.0
0.004852 0.004296 0.0
0.006772 0.005133 0.0
0.009628 0.006469 0.0
0.013829 0.008458 0.0
0.019999 0.011379 0.0
0.029010 0.015662 0.0
0.041959 0.021914 0.0
0.059907 0.030896 0.0
0.083193 0.043383 0.0
0.110462 0.059953 0.0
0.138714 0.081215 0.0
0.166062 0.107278 0.0
0.191198 0.139141 0.0
0.211486 0.175055 0.0
0.222723 0.206367 0.0
0.222013 0.222013 0.0
0.209971 0.218035 0.0
0.186907 0.195822 0.0
0.139566 0.145416 0.0
0.051825 0.053640 0.0
0.003186 0.003287 0.0
0.000005 0.000005 0.0
0.000000 0.000000 0.0
0.000000 0.000000 0.0
0.000000 0.000000 0.0
0.000000 0.000000 0.0
0.000106 0.000443 0.0
0.000033 0.000073 0.0
0.000019 0.000027 0.0
0.000021 0.000022 0.0
0.000031 0.000027 0.0
0.000054 0.000040 0.0
0.000103 0.000067 0.0
0.000209 0.000124 0.0
0.000446 0.000246 0.0
0.001000 0.000522 0.0
0.002340 0.001182 0.0
0.005670 0.002826 0.0
0.013971 0.007054 0.0
0.033580 0.017852 0.0
0.070379 0.042250 0.0
0.109737 0.074064 0.0
0.147199 0.110075 0.0
0.180348 0.149060 0.0
0.205190 0.185256 0.0
0.218035 0.209971 0.0
0.217743 0.217743 0.0
0.201676 0.204860 0.0
0.145922 0.148575 0.0
0.040569 0.041233 0.0
0.001266 0.001285 0.0
0.000001 0.000001 0.0
0.000000 0.000000 0.0
0.000000 0.000000 0.0
0.000000 0.000000 0.0
0.000000 0.000000 0.0
0.000000 0.000000 0.0
0.000000 0.000000 0.0
0.000000 0.000000 0.0
0.000000 0.000000 0.0
0.000000 0.000000 0.0
0.000000 0.000000 0.0
0.000000 0.000000 0.0
0.000000 0.000000 0.0
0.000000 0.000000 0.0
0.000001 0.000000 0.0
0.000003 0.000002 0.0
0.000022 0.000011 0.0
0.000170 0.000085 0.0
0.001491 0.000787 0.0
0.013697 0.008438 0.0
0.051922 0.037413 0.0
0.095917 0.076099 0.0
0.137252 0.117237 0.0
0.171968 0.156431 0.0
0.195822 0.186907 0.0
0.204860 0.201676 0.0
0.186612 0.186612 0.0
0.099688 0.100211 0.0
0.010455 0.010516 0.0
0.000044 0.000044 0.0
0.000000 0.000000 0.0
0.000000 0.000000 0.0
0.000000 0.000000 0.0
0.000000 0.000000 0.0
0.000000 0.000000 0.0
0.000000 0.000000 0.0
0.000000 0.000000 0.0
0.000000 0.000000 0.0
0.000000 0.000000 0.0
0.000000 0.000000 0.0
0.000000 0.000000 0.0
0.000000 0.000000 0.0
0.000000 0.000000 0.0
0.000000 0.000000 0.0
0.000000 0.000000 0.0
0.000000 0.000000 0.0
0.000000 0.000000 0.0
0.000000 0.000000 0.0
0.000001 0.000001 0.0
0.000243 0.000151 0.0
0.007888 0.005863 0.0
0.039128 0.032405 0.0
0.080693 0.071381 0.0
0.118720 0.110066 0.0
0.145416 0.139566 0.0
0.148575 0.145922 0.0
0.100211 0.099688 0.0
0.018376 0.018376 0.0
0.000182 0.000182 0.0
0.000000 0.000000 0.0
0.000000 0.000000 0.0
0.000000 0.000000 0.0
0.000000 0.000000 0.0
0.000000 0.000000 0.0
0.000000 0.000000 0.0
0.000000 0.000000 0.0
0.000000 0.000000 0.0
0.000000 0.000000 0.0
0.000000 0.000000 0.0
0.000000 0.000000 0.0
0.000000 0.000000 0.0
0.000000 0.000000 0.0
0.000000 0.000000 0.0
0.000000 0.000000 0.0
0.000000 0.000000 0.0
0.000000 0.000000 0.0
0.000000 0.000000 0.0
0.000000 0.000000 0.0
0.000000 0.000000 0.0
0.000000 0.000000 0.0
0.000082 0.000062 0.0
0.003466 0.002918 0.0
0.019015 0.017115 0.0
0.041179 0.038678 0.0
0.053640 0.051825 0.0
0.041233 0.040569 0.0
0.010516 0.010455 0.0
0.000182 0.000182 0.0
0.000000 0.000000 0.0
0.000000 0.000000 0.0
0.000000 0.000000 0.0
0.000000 0.000000 0.0
0.000000 0.000000 0.0
0.000000 0.000000 0.0
0.000000 0.000000 0.0
0.000000 0.000000 0.0
0.000000 0.000000 0.0
0.000000 0.000000 0.0
0.000000 0.000000 0.0
0.000000 0.000000 0.0
0.000000 0.000000 0.0
0.000000 0.000000 0.0
0.000000 0.000000 0.0
0.000000 0.000000 0.0
0.000000 0.000000 0.0
0.000000 0.000000 0.0
0.000000 0.000000 0.0
0.000000 0.000000 0.0
0.000000 0.000000 0.0
0.000000 0.000000 0.0
0.000000 0.000000 0.0
0.000012 0.000010 0.0
0.000470 0.000426 0.0
0.002314 0.002185 0.0
0.003287 0.003186 0.0
0.001285 0.001266 0.0
0.000044 0.000044 0.0
0.000000 0.000000 0.0
0.000000 0.000000 0.0
0.000000 0.000000 0.0
0.000000 0.000000 0.0
0.000000 0.000000 0.0
0.000000 0.000000 0.0
0.000000 0.000000 0.0
0.000000 0.000000 0.0
0.000000 0.000000 0.0
0.000000 0.000000 0.0
0.000000 0.000000 0.0
0.000000 0.000000 0.0
0.000000 0.000000 0.0
0.000000 0.000000 0.0
0.000000 0.000000 0.0
0.000000 0.000000 0.0
0.000000 0.000000 0.0
0.000000 0.000000 0.0
0.000000 0.000000 0.0
0.000000 0.000000 0.0
0.000000 0.000000 0.0
0.000000 0.000000 0.0
0.000000 0.000000 0.0
0.000000 0.000000 0.0
0.000000 0.000000 0.0
0.000000 0.000000 0.0
0.000003 0.000003 0.0
0.000005 0.000005 0.0
0.000001 0.000001 0.0
0.000000 0.000000 0.0
0.000000 0.000000 0.0
0.000000 0.000000 0.0
0.000000 0.000000 0.0
0.000000 0.000000 0.0
0.000000 0.000000 0.0
0.000000 0.000000 0.0
0.000000 0.000000 0.0
0.000000 0.000000 0.0
0.000000 0.000000 0.0
0.000000 0.000000 0.0
0.000000 0.000000 0.0
0.000000 0.000000 0.0
0.000000 0.000000 0.0
0.000000 0.000000 0.0
0.000000 0.000000 0.0
0.000000 0.000000 0.0
0.000000 0.000000 0.0
0.000000 0.000000 0.0
0.000000 0.000000 0.0
0.000000 0.000000 0.0
0.000000 0.000000 0.0
0.000000 0.000000 0.0
0.000000 0.000000 0.0
0.000000 0.000000 0.0
0.000000 0.000000 0.0
0.000000 0.000000 0.0
0.000000 0.000000 0.0
0.000000 0.000000 0.0
0.000000 0.000000 0.0
0.000000 0.000000 0.0
0.000000 0.000000 0.0
0.000000 0.000000 0.0
0.000000 0.000000 0.0
0.000000 0.000000 0.0
0.000000 0.000000 0.0
0.000000 0.000000 0.0
0.000000 0.000000 0.0
0.000000 0.000000 0.0
0.000000 0.000000 0.0
0.000000 0.000000 0.0
0.000000 0.000000 0.0
0.000000 0.000000 0.0
0.000000 0.000000 0.0
0.000000 0.000000 0.0
0.000000 0.000000 0.0
0.000000 0.000000 0.0
0.000000 0.000000 0.0
0.000000 0.000000 0.0
0.000000 0.000000 0.0
0.000000 0.000000 0.0
0.000000 0.000000 0.0
0.000000 0.000000 0.0
0.000000 0.000000 0.0
0.000000 0.000000 0.0
0.000000 0.000000 0.0
0.000000 0.000000 0.0
0.000000 0.000000 0.0
0.000000 0.000000 0.0
0.000000 0.000000 0.0
0.000000 0.000000 0.0
0.000000 0.000000 0.0
0.000000 0.000000 0.0
0.000000 0.000000 0.0
0.000000 0.000000 0.0
0.000000 0.000000 0.0
0.000000 0.000000 0.0
0.000000 0.000000 0.0
0.000000 0.000000 0.0
0.000000 0.000000 0.0
0.000000 0.000000 0.0
0.000000 0.000000 0.0
0.000000 0.000000 0.0
0.000000 0.000000 0.0
0.000000 0.000000 0.0
0.000000 0.000000 0.0
0.000000 0.000000 0.0
0.000000 0.000000 0.0
0.000000 0.000000 0.0
0.000000 0.000000 0.0
0.000000 0.000000 0.0
0.000000 0.000000 0.0
0.000000 0.000000 0.0
0.000000 0.000000 0.0
0.000000 0.000000 0.0
0.000000 0.000000 0.0
0.000000 0.000000 0.0
0.000000 0.000000 0.0
0.000000 0.000000 0.0
0.000000 0.000000 0.0
0.000000 0.000000 0.0
0.000000 0.000000 0.0
0.000000 0.000000 0.0
0.000000 0.000000 0.0
0.000000 0.000000 0.0
0.000000 0.000000 0.0
0.000000 0.000000 0.0
0.000000 0.000000 0.0
0.000000 0.000000 0.0
0.000000 0.000000 0.0
0.000000 0.000000 0.0
0.000000 0.000000 0.0
0.000000 0.000000 0.0
0.000000 0.000000 0.0
0.000000 0.000000 0.0
0.000000 0.000000 0.0
0.000000 0.000000 0.0
0.000000 0.000000 0.0
0.000000 0.000000 0.0
0.000000 0.000000 0.0
0.000000 0.000000 0.0
0.000000 0.000000 0.0
0.000000 0.000000 0.0
0.000000 0.000000 0.0
0.000000 0.000000 0.0
0.000000 0.000000 0.0
0.000000 0.000000 0.0
0.000000 0.000000 0.0
0.000000 0.000000 0.0
0.000000 0.000000 0.0
0.000000 0.000000 0.0
0.000000 0.000000 0.0
0.000000 0.000000 0.0
0.000000 0.000000 0.0
0.000000 0.000000 0.0
0.000000 0.000000 0.0
0.000000 0.000000 0.0
0.000000 0.000000 0.0
0.000000 0.000000 0.0
</DataArray>
   </CellData>
  </Piece>
 </UnstructuredGrid>
</VTKFile>
